LAMMPS data file for vert chain of 12 beads

12 atoms
1 atom types
11 bonds
1 bond types
10 angles
1 angle types

-3.5000000000000001e-03 3.5000000000000001e-03 xlo xhi
-3.5000000000000001e-03 3.5000000000000001e-03 ylo yhi
-1.7249999999999998e-02 1.7249999999999998e-02 zlo zhi

Masses

1 3.5604716740684320e-05

Atoms # hybrid sphere molecular

1 1 1 0.0000000000000000e+00 0.0000000000000000e+00 -1.3750000000000000e-02 2.0000000000000000e-03 8.5000000000000000e+03 1.0 0.0 0.0 0.0
2 1 1 0.0000000000000000e+00 0.0000000000000000e+00 -1.1250000000000000e-02 2.0000000000000000e-03 8.5000000000000000e+03 1.0 0.0 0.0 0.0
3 1 1 0.0000000000000000e+00 0.0000000000000000e+00 -8.7500000000000008e-03 2.0000000000000000e-03 8.5000000000000000e+03 1.0 0.0 0.0 0.0
4 1 1 0.0000000000000000e+00 0.0000000000000000e+00 -6.2500000000000003e-03 2.0000000000000000e-03 8.5000000000000000e+03 1.0 0.0 0.0 0.0
5 1 1 0.0000000000000000e+00 0.0000000000000000e+00 -3.7499999999999999e-03 2.0000000000000000e-03 8.5000000000000000e+03 1.0 0.0 0.0 0.0
6 1 1 0.0000000000000000e+00 0.0000000000000000e+00 -1.2499999999999994e-03 2.0000000000000000e-03 8.5000000000000000e+03 1.0 0.0 0.0 0.0
7 1 1 0.0000000000000000e+00 0.0000000000000000e+00 1.2499999999999994e-03 2.0000000000000000e-03 8.5000000000000000e+03 1.0 0.0 0.0 0.0
8 1 1 0.0000000000000000e+00 0.0000000000000000e+00 3.7500000000000016e-03 2.0000000000000000e-03 8.5000000000000000e+03 1.0 0.0 0.0 0.0
9 1 1 0.0000000000000000e+00 0.0000000000000000e+00 6.2500000000000003e-03 2.0000000000000000e-03 8.5000000000000000e+03 1.0 0.0 0.0 0.0
10 1 1 0.0000000000000000e+00 0.0000000000000000e+00 8.7499999999999991e-03 2.0000000000000000e-03 8.5000000000000000e+03 1.0 0.0 0.0 0.0
11 1 1 0.0000000000000000e+00 0.0000000000000000e+00 1.1250000000000001e-02 2.0000000000000000e-03 8.5000000000000000e+03 1.0 0.0 0.0 0.0
12 1 1 0.0000000000000000e+00 0.0000000000000000e+00 1.3750000000000000e-02 2.0000000000000000e-03 8.5000000000000000e+03 1.0 0.0 0.0 0.0

Velocities

1 0 0 0 0 0 0
2 0 0 0 0 0 0
3 0 0 0 0 0 0
4 0 0 0 0 0 0
5 0 0 0 0 0 0
6 0 0 0 0 0 0
7 0 0 0 0 0 0
8 0 0 0 0 0 0
9 0 0 0 0 0 0
10 0 0 0 0 0 0
11 0 0 0 0 0 0
12 0 0 0 0 0 0

Bonds

1 1 1 2
2 1 2 3
3 1 3 4
4 1 4 5
5 1 5 6
6 1 6 7
7 1 7 8
8 1 8 9
9 1 9 10
10 1 10 11
11 1 11 12

Angles

1 1 1 2 3
2 1 2 3 4
3 1 3 4 5
4 1 4 5 6
5 1 5 6 7
6 1 6 7 8
7 1 7 8 9
8 1 8 9 10
9 1 9 10 11
10 1 10 11 12
