LAMMPS data file for brass chain of 11 beads

11 atoms
1 atom types
10 bonds
1 bond types
9 angles
1 angle types

-2.0000000000000000e-02 2.0000000000000000e-02 xlo xhi
-1.0000000000000000e-02 1.0000000000000000e-02 ylo yhi
0.0000000000000000e+00 8.0000000000000002e-02 zlo zhi

Masses

1 3.5604700000000002e-05

Atoms # hybrid sphere molecular
1 1 0 0 7.5000000000000004e-02 2.0000000000000000e-03 8500 1 0 0 0
2 1 0 0 7.2500000000000004e-02 2.0000000000000000e-03 8500 1 0 0 0
3 1 0 0 7.0000000000000004e-02 2.0000000000000000e-03 8500 1 0 0 0
4 1 0 0 6.7500000000000004e-02 2.0000000000000000e-03 8500 1 0 0 0
5 1 0 0 6.5000000000000005e-02 2.0000000000000000e-03 8500 1 0 0 0
6 1 0 0 6.2500000000000004e-02 2.0000000000000000e-03 8500 1 0 0 0
7 1 0 0 6.0000000000000003e-02 2.0000000000000000e-03 8500 1 0 0 0
8 1 0 0 5.7500000000000003e-02 2.0000000000000000e-03 8500 1 0 0 0
9 1 0 0 5.5000000000000002e-02 2.0000000000000000e-03 8500 1 0 0 0
10 1 0 0 5.2500000000000002e-02 2.0000000000000000e-03 8500 1 0 0 0
11 1 0 0 5.0000000000000001e-02 2.0000000000000000e-03 8500 1 0 0 0
12 1 0 0 4.7500000000000001e-02 2.0000000000000000e-03 8500 1 0 0 0

Velocities
1 0 0 0 0 0 0
2 0 0 0 0 0 0
3 0 0 0 0 0 0
4 0 0 0 0 0 0
5 0 0 0 0 0 0
6 0 0 0 0 0 0
7 0 0 0 0 0 0
8 0 0 0 0 0 0
9 0 0 0 0 0 0
10 0 0 0 0 0 0
11 0 0 0 0 0 0
12 0 0 0 0 0 0

Bonds
1 1 1 2
2 1 2 3
3 1 3 4
4 1 4 5
5 1 5 6
6 1 6 7
7 1 7 8
8 1 8 9
9 1 9 10
10 1 10 11
11 1 11 12

Angles
1 1 1 2 3
2 1 2 3 4
3 1 3 4 5
4 1 4 5 6
5 1 5 6 7
6 1 6 7 8
7 1 7 8 9
8 1 8 9 10
9 1 9 10 11
10 1 10 11 12

