LAMMPS (22 Jul 2025 - Update 1)
  using 4 OpenMP thread(s) per MPI task
Loaded 1 plugins from C:\Users\Palash\AppData\Local\LAMMPS 64-bit 22Jul2025-MSMPI with Python\plugins
# Flexible granular chain simulation in LAMMPS

units       si
atom_style hybrid sphere molecular
WARNING: Atom style hybrid defines both, per-type and per-atom masses; both must be set, but only per-atom masses will be used (src/atom_vec_hybrid.cpp:132)
# sphere
# atom-ID atom-type diameter density x y z
# bond
# atom-ID molecule-ID atom-type x y z
# hybrid sphere molecular
# atom-ID atom-type x y z molecule-ID diameter density
# atom_modify	map array
boundary    f f f

special_bonds fene

# Read the atom and bond data from the data file.
read_data chain.data
Reading data file ...
  orthogonal box = (-0.02 -0.01 0) to (0.02 0.01 0.08)
  1 by 1 by 1 MPI processor grid
WARNING: Atom style in data file hybrid sphere molecular differs from currently defined atom style hybrid (src/read_data.cpp:727)
  reading atoms ...
  11 atoms
  reading velocities ...
  11 velocities
  scanning bonds ...
  1 = max bonds/atom
  scanning angles ...
  1 = max angles/atom
  orthogonal box = (-0.02 -0.01 0) to (0.02 0.01 0.08)
  1 by 1 by 1 MPI processor grid
  reading bonds ...
  10 bonds
  reading angles ...
  9 angles
Finding 1-2 1-3 1-4 neighbors ...
  special bond factors lj:    0        1        1       
  special bond factors coul:  0        1        1       
     2 = max # of 1-2 neighbors
     2 = max # of special neighbors
  special bonds CPU = 0.001 seconds
  read_data CPU = 0.008 seconds

# Ensure spherical properties are consistent (overrides data if needed)
set type 1 diameter 0.002
Setting atom values ...
  11 settings made for diameter
set type 1 density 8500.0
Setting atom values ...
  11 settings made for density
velocity all set 0.0 0.0 0.0

# Optional: create a unique output directory per run (portable on Windows PowerShell)
# shell powershell -NoProfile -Command "if (!(Test-Path 'post')) {New-Item -ItemType Directory -Path 'post' ^| Out-Null}; $counterPath = 'post/run_counter.txt'; if (!(Test-Path $counterPath)) {Set-Content -Path $counterPath -Value '0'}; $count = [int](Get-Content -Path $counterPath); $next = $count + 1; Set-Content -Path $counterPath -Value $next; $outdir = Join-Path 'post' ('run_{0:D4}' -f $next); New-Item -ItemType Directory -Path $outdir -Force ^| Out-Null; $forward = $outdir -replace '\\','/'; Set-Content -Path 'post/current_run.txt' -Value $forward; Set-Content -Path 'post/current_run.lmp' -Value ('variable outdir string ' + $forward);"
# include post/current_run.lmp

# Ensure a predictable output directory and set outdir
shell if not exist post mkdir post
shell if not exist post\current mkdir post\current
variable outdir string post/current

# Apply gravity
fix grav all gravity 9.81 vector 0 0 -1
# fix 3 all wall/gran granular hertz/material 1e5 1e3 0.3 #     tangential mindlin NULL 1.0 0.5 zplane 0 NULL

fix floor all wall/gran granular hertz/material 2.0e11 0.3 5e4     tangential linear_history 300.0 1.0 0.1     rolling sds 200.0 100.0 0.1     twisting marshall     zplane 0.005 NULL
fix ceil all wall/gran granular hertz/material 2.0e11 0.3 5e4     tangential linear_history 300.0 1.0 0.1     rolling sds 200.0 100.0 0.1     twisting marshall     zplane 0.08 NULL

comm_modify    vel yes

pair_style      granular
pair_coeff  1 1 hertz/material 2.0e11 0.30 5.0e4             tangential linear_history 8.0e10 5.0e3 0.40             rolling sds 1.0e4 5.0e3 0.30             twisting marshall

# pair_coeff 1 1 hertz/material 1 1 1
# fix props all property/global youngsModulus peratomtype 1 2.0e11
# fix props all property/global poissonsRatio peratomtype 1 0.30
# fix props all property/global coefficientRestitution peratomtypepair 1 1 5.0e4
# Set contact properties directly through pair coefficients (no property/global fixes available)

# Connect beads with a custom tabulated bond: no force between 2 mm and 3 mm,
# steep quadratic walls outside that window.
bond_style table spline 200
bond_coeff 1 bond_window.table WIN

# Define the angle style as Harmonic. This will act as our angular infinite well.
# The potential is given by E=K(θ−θ0)^2 where θ0 is the equilibrium angle.
# We will set θ0 to your desired limit of 38 degrees.
angle_style table spline 2001      # use spline and match N_points in the file (2001 here)
angle_coeff 1 bond_angle.table ANGLE_WELL

# Use the standard NVE integrator for non-rigid bodies.
fix integr all nve/sphere

# Set up neighbor list parameters (wider skin and higher per-atom quota prevent overflow)
neighbor 0.08 bin
neigh_modify delay 0 every 1 check yes one 10000

# Set a conservative timestep for the stiff bonded chain.
timestep 2.5e-8

# === 4. OUTPUTS & RUN ===
# Output thermodynamic data every 1000 timesteps.
thermo 1000
thermo_style custom step pe ke etotal press

# Output a dump file of the atom coordinates for visualization (e.g., in ParaView)
dump 1 all custom 10000 ${outdir}/chain_*.dump id type x y z vx vy vz diameter
dump 1 all custom 10000 post/current/chain_*.dump id type x y z vx vy vz diameter
dump_modify 1 sort id

variable outdir delete
# unfix floor
# fix floor all wall/reflect zlo 0.005
# run 4800000
# unfix floor
# Run the simulation for 100000 timesteps = 1.0 s.
run 4800000
Generated 0 of 0 mixed pair_coeff terms from geometric mixing rule
WARNING: Communication cutoff 0.082 is shorter than a bond length based estimate of 0.0835265. This may lead to errors. (src/comm.cpp:743)
Neighbor list info ...
  update: every = 1 steps, delay = 0 steps, check = yes
  max neighbors/atom: 10000, page size: 100000
  master list distance cutoff = 0.082
  ghost atom cutoff = 0.082
  binsize = 0.041, bins = 1 1 2
  1 neighbor lists, perpetual/occasional/extra = 1 0 0
  (1) pair granular, perpetual
      attributes: half, newton on, size, history
      pair build: half/size/bin/newton
      stencil: half/bin/3d
      bin: standard
WARNING: Proc sub-domain size < neighbor skin, could lead to lost atoms (src/domain.cpp:1204)
WARNING: Communication cutoff 0.082 is shorter than a bond length based estimate of 0.0835265. This may lead to errors. (src/comm.cpp:743)
Per MPI rank memory allocation (min/avg/max) = 72.11 | 72.11 | 72.11 Mbytes
   Step         PotEng         KinEng         TotEng         Press     
         0   68080.5        0              68080.5       -7.4505806e-05
      1000   68080.5        1.1778453e-11  68080.5       -8.0591931e-05
      2000   68080.5        4.7113813e-11  68080.5        6.699586e-06 
      3000   68080.5        1.0600608e-10  68080.5        1.3521864e-05
      4000   68080.5        1.8845525e-10  68080.5        2.0589527e-05
      5000   68080.5        2.9446133e-10  68080.5        1.548494e-05 
      6000   68080.5        4.2402431e-10  68080.5       -1.7918974e-06
      7000   68080.5        5.771442e-10   68080.5       -6.4057156e-06
      8000   68080.5        7.53821e-10    68080.5        1.4061119e-05
      9000   68080.5        9.540547e-10   68080.5        3.7292529e-06
     10000   68080.5        1.1778453e-09  68080.5        1.8478039e-05
     11000   68080.5        1.4251928e-09  68080.5        2.4281243e-06
     12000   68080.5        1.6960972e-09  68080.5        5.2500457e-06
     13000   68080.5        1.9905586e-09  68080.5        8.3173511e-06
     14000   68080.5        2.3085768e-09  68080.5        5.4212237e-06
     15000   68080.5        2.6501519e-09  68080.5        6.4858653e-05
     16000   68080.5        3.015284e-09   68080.5        1.2782756e-05
     17000   68080.5        3.4039729e-09  68080.5        3.5458052e-05
     18000   68080.5        3.8162188e-09  68080.5       -1.6127075e-05
     19000   68080.5        4.2520216e-09  68080.5        1.9456624e-05
     20000   68080.5        4.7113812e-09  68080.5        8.6329791e-05
     21000   68080.5        5.1942978e-09  68080.5        2.9272e-05   
     22000   68080.5        5.7007713e-09  68080.5        7.8009485e-05
     23000   68080.5        6.2308017e-09  68080.5        4.6277732e-05
     24000   68080.5        6.784389e-09   68080.5        8.929717e-05 
     25000   68080.5        7.3615332e-09  68080.5        1.4594465e-05
     26000   68080.5        7.9622343e-09  68080.5        0.00012019284
     27000   68080.5        8.5864923e-09  68080.5        0.00010186026
     28000   68080.5        9.2343072e-09  68080.5        5.2728982e-05
     29000   68080.5        9.9056791e-09  68080.5        4.1095985e-05
     30000   68080.5        1.0600608e-08  68080.5        9.1796547e-05
     31000   68080.5        1.1319093e-08  68080.5        0.00011790722
     32000   68080.5        1.2061136e-08  68080.5        0.0001132192 
     33000   68080.5        1.2826735e-08  68080.5        0.00014602946
     34000   68080.5        1.3615892e-08  68080.5        0.00014183221
     35000   68080.5        1.4428605e-08  68080.5        0.00013788033
     36000   68080.5        1.5264875e-08  68080.5        0.00013417385
     37000   68080.5        1.6124702e-08  68080.5        0.00020521855
     38000   68080.5        1.7008086e-08  68080.5        0.00016474993
     39000   68080.5        1.7915027e-08  68080.5        0.00014315315
     40000   68080.5        1.8845525e-08  68080.5        0.00019009873
     41000   68080.5        1.979958e-08   68080.5        0.00015657508
     42000   68080.5        2.0777191e-08  68080.5        0.00022884671
     43000   68080.5        2.177836e-08   68080.5        0.00030757254
     44000   68080.5        2.2803085e-08  68080.5        0.00024994977
     45000   68080.5        2.3851368e-08  68080.5        0.00025466056
     46000   68080.5        2.4923207e-08  68080.5        0.00029066082
     47000   68080.5        2.6018603e-08  68080.5        0.00030207121
     48000   68080.5        2.7137556e-08  68080.5        0.00027647406
     49000   68080.5        2.8280066e-08  68080.5        0.00026974876
     50000   68080.5        2.9446133e-08  68080.5        0.00027568646
     51000   68080.5        3.0635756e-08  68080.5        0.00031291365
     52000   68080.5        3.1848937e-08  68080.5        0.0003814303 
     53000   68080.5        3.3085675e-08  68080.5        0.00033843363
     54000   68080.5        3.4345969e-08  68080.5        0.00036397933
     55000   68080.5        3.5629821e-08  68080.5        0.00034630869
     56000   68080.5        3.6937229e-08  68080.5        0.00040959807
     57000   68080.5        3.8268194e-08  68080.5        0.00041104465
     58000   68080.5        3.9622716e-08  68080.5        0.00041273663
     59000   68080.5        4.1000795e-08  68080.5        0.00045192688
     60000   68080.5        4.2402431e-08  68080.5        0.00044169199
     61000   68080.5        4.3827624e-08  68080.5        0.0004379113 
     62000   68080.5        4.5276374e-08  68080.5        0.00044058481
     63000   68080.5        4.674868e-08   68080.5        0.00049317424
     64000   68080.5        4.8244544e-08  68080.5        0.00044045916
     65000   68080.5        4.9763964e-08  68080.5        0.00052458345
     66000   68080.5        5.1306942e-08  68080.5        0.00054686494
     67000   68080.5        5.2873476e-08  68080.5        0.00053213892
     68000   68080.5        5.4463567e-08  68080.5        0.00057353764
     69000   68080.5        5.6077215e-08  68080.5        0.00055930239
     70000   68080.5        5.771442e-08   68080.5        0.00063844478
     71000   68080.5        5.9375182e-08  68080.5        0.0005874474 
     72000   68080.5        6.1059501e-08  68080.5        0.00060499238
     73000   68080.5        6.2767377e-08  68080.5        0.00069107974
     74000   68080.5        6.4498809e-08  68080.5        0.0006718626 
     75000   68080.5        6.6253799e-08  68080.5        0.00066530847
     76000   68080.5        6.8032345e-08  68080.5        0.00073350553
     77000   68080.5        6.9834448e-08  68080.5        0.00073365099
     78000   68080.5        7.1660109e-08  68080.5        0.0007588771 
     79000   68080.5        7.3509326e-08  68080.5        0.00076572214
     80000   68080.5        7.53821e-08    68080.5        0.00081627429
     81000   68080.5        7.7278431e-08  68080.5        0.00080498365
     82000   68080.5        7.9198319e-08  68080.5        0.0008311913 
     83000   68080.5        8.1141763e-08  68080.5        0.0008824796 
     84000   68080.5        8.3108765e-08  68080.5        0.00083467221
     85000   68080.5        8.5099324e-08  68080.5        0.00087403365
     86000   68080.5        8.7113439e-08  68080.5        0.00087017875
     87000   68080.5        8.9151111e-08  68080.5        0.00089761333
     88000   68080.5        9.1212341e-08  68080.5        0.00091908446
     89000   68080.5        9.3297127e-08  68080.5        0.00097184508
     90000   68080.5        9.540547e-08   68080.5        0.00096276289
     91000   68080.5        9.753737e-08   68080.5        0.0010035966 
     92000   68080.5        9.9692827e-08  68080.5        0.0010322581 
     93000   68080.5        1.0187184e-07  68080.5        0.0010797915 
     94000   68080.5        1.0407441e-07  68080.5        0.0010406467 
     95000   68080.5        1.0630054e-07  68080.5        0.0011383414 
     96000   68080.5        1.0855022e-07  68080.5        0.0011493579 
     97000   68080.5        1.1082347e-07  68080.5        0.0010674877 
     98000   68080.5        1.1312026e-07  68080.5        0.0011535008 
     99000   68080.5        1.1544062e-07  68080.5        0.0012335505 
    100000   68080.5        1.1778453e-07  68080.5        0.0012393398 
    101000   68080.5        1.20152e-07    68080.5        0.0012205392 
    102000   68080.5        1.2254303e-07  68080.5        0.0012826987 
    103000   68080.5        1.2495761e-07  68080.5        0.0013078506 
    104000   68080.5        1.2739575e-07  68080.5        0.0012897861 
    105000   68080.5        1.2985745e-07  68080.5        0.0013899346 
    106000   68080.5        1.323427e-07   68080.5        0.001372361  
    107000   68080.5        1.3485151e-07  68080.5        0.0013674503 
    108000   68080.5        1.3738388e-07  68080.5        0.0014372909 
    109000   68080.5        1.399398e-07   68080.5        0.0015197944 
    110000   68080.5        1.4251928e-07  68080.5        0.0014845759 
    111000   68080.5        1.4512232e-07  68080.5        0.0014744379 
    112000   68080.5        1.4774892e-07  68080.5        0.0015638865 
    113000   68080.5        1.5039907e-07  68080.5        0.0015790746 
    114000   68080.5        1.5307278e-07  68080.5        0.0015882993 
    115000   68080.5        1.5577004e-07  68080.5        0.0016350222 
    116000   68080.5        1.5849086e-07  68080.5        0.0016261112 
    117000   68080.5        1.6123524e-07  68080.5        0.0017043691 
    118000   68080.5        1.6400318e-07  68080.5        0.0017145753 
    119000   68080.5        1.6679467e-07  68080.5        0.001687774  
    120000   68080.5        1.6960972e-07  68080.5        0.0017046798 
    121000   68080.5        1.7244833e-07  68080.5        0.0018025456 
    122000   68080.5        1.753105e-07   68080.5        0.0018323598 
    123000   68080.5        1.7819622e-07  68080.5        0.0018562106 
    124000   68080.5        1.8110549e-07  68080.5        0.0018616803 
    125000   68080.5        1.8403833e-07  68080.5        0.0019170659 
    126000   68080.5        1.8699472e-07  68080.5        0.0018981911 
    127000   68080.5        1.8997467e-07  68080.5        0.0020161557 
    128000   68080.5        1.9297818e-07  68080.5        0.0019791452 
    129000   68080.5        1.9600524e-07  68080.5        0.0020913918 
    130000   68080.5        1.9905586e-07  68080.5        0.0020424544 
    131000   68080.5        2.0213003e-07  68080.5        0.0020620595 
    132000   68080.5        2.0522777e-07  68080.5        0.0021315804 
    133000   68080.5        2.0834906e-07  68080.5        0.002157885  
    134000   68080.5        2.114939e-07   68080.5        0.0022278968 
    135000   68080.5        2.1466231e-07  68080.5        0.0022484833 
    136000   68080.5        2.1785427e-07  68080.5        0.0022010183 
    137000   68080.5        2.2106979e-07  68080.5        0.0023400632 
    138000   68080.5        2.2430886e-07  68080.5        0.0023675947 
    139000   68080.5        2.2757149e-07  68080.5        0.0024015805 
    140000   68080.5        2.3085768e-07  68080.5        0.0024109763 
    141000   68080.5        2.3416743e-07  68080.5        0.002439244  
    142000   68080.5        2.3750073e-07  68080.5        0.0024553395 
    143000   68080.5        2.4085759e-07  68080.5        0.0025523949 
    144000   68080.5        2.44238e-07    68080.5        0.0025317282 
    145000   68080.5        2.4764198e-07  68080.5        0.0025175157 
    146000   68080.5        2.5106951e-07  68080.5        0.0026587691 
    147000   68080.5        2.5452059e-07  68080.5        0.0026450474 
    148000   68080.5        2.5799524e-07  68080.5        0.0027060768 
    149000   68080.5        2.6149344e-07  68080.5        0.0027673517 
    150000   68080.5        2.6501519e-07  68080.5        0.0027854102 
    151000   68080.5        2.6856051e-07  68080.5        0.0028099229 
    152000   68080.5        2.7212938e-07  68080.5        0.002834681  
    153000   68080.5        2.7572181e-07  68080.5        0.0028596845 
    154000   68080.5        2.7933779e-07  68080.5        0.0028911422 
    155000   68080.5        2.8297734e-07  68080.5        0.0029538894 
    156000   68080.5        2.8664043e-07  68080.5        0.0030044643 
    157000   68080.5        2.9032709e-07  68080.5        0.003042867  
    158000   68080.5        2.940373e-07   68080.5        0.003081515  
    159000   68080.5        2.9777107e-07  68080.5        0.0031390349 
    160000   68080.5        3.015284e-07   68080.5        0.0031533385 
    161000   68080.5        3.0530928e-07  68080.5        0.0032175579 
    162000   68080.5        3.0911372e-07  68080.5        0.003207517  
    163000   68080.5        3.1294172e-07  68080.5        0.003278436  
    164000   68080.5        3.1679327e-07  68080.5        0.0032875123 
    165000   68080.5        3.2066839e-07  68080.5        0.0033340869 
    166000   68080.5        3.2456705e-07  68080.5        0.0033560715 
    167000   68080.5        3.2848928e-07  68080.5        0.0034217633 
    168000   68080.5        3.3243506e-07  68080.5        0.0034380299 
    169000   68080.5        3.364044e-07   68080.5        0.003553883  
    170000   68080.5        3.4039729e-07  68080.5        0.0035458051 
    171000   68080.5        3.4441375e-07  68080.5        0.003593852  
    172000   68080.5        3.4845376e-07  68080.5        0.0036545619 
    173000   68080.5        3.5251732e-07  68080.5        0.003721726  
    174000   68080.5        3.5660445e-07  68080.5        0.003770509  
    175000   68080.5        3.6071513e-07  68080.5        0.003732614  
    176000   68080.5        3.6484936e-07  68080.5        0.003806723  
    177000   68080.5        3.6900716e-07  68080.5        0.0038686598 
    178000   68080.5        3.7318851e-07  68080.5        0.0038935891 
    179000   68080.5        3.7739342e-07  68080.5        0.0039249726 
    180000   68080.5        3.8162188e-07  68080.5        0.0040000632 
    181000   68080.5        3.858739e-07   68080.5        0.0040443551 
    182000   68080.5        3.9014948e-07  68080.5        0.0040826835 
    183000   68080.5        3.9444862e-07  68080.5        0.0041150486 
    184000   68080.5        3.9877131e-07  68080.5        0.0041724943 
    185000   68080.5        4.0311756e-07  68080.5        0.0042363941 
    186000   68080.5        4.0748736e-07  68080.5        0.0042198248 
    187000   68080.5        4.1188073e-07  68080.5        0.0042966331 
    188000   68080.5        4.1629765e-07  68080.5        0.0043240162 
    189000   68080.5        4.2073812e-07  68080.5        0.0043888976 
    190000   68080.5        4.2520216e-07  68080.5        0.0044291891 
    191000   68080.5        4.2968975e-07  68080.5        0.0044759348 
    192000   68080.5        4.3420089e-07  68080.5        0.0044856731 
    193000   68080.5        4.387356e-07   68080.5        0.0045453272 
    194000   68080.5        4.4329386e-07  68080.5        0.0046114356 
    195000   68080.5        4.4787568e-07  68080.5        0.0046591628 
    196000   68080.5        4.5248105e-07  68080.5        0.0047071355 
    197000   68080.5        4.5710999e-07  68080.5        0.00477398   
    198000   68080.5        4.6176247e-07  68080.5        0.0047976081 
    199000   68080.5        4.6643852e-07  68080.5        0.0048711522 
    200000   68080.5        4.7113812e-07  68080.5        0.0049325241 
    201000   68080.5        4.7586128e-07  68080.5        0.0049630972 
    202000   68080.5        4.80608e-07    68080.5        0.0049380363 
    203000   68080.5        4.8537827e-07  68080.5        0.0050560237 
    204000   68080.5        4.901721e-07   68080.5        0.0051618388 
    205000   68080.5        4.9498949e-07  68080.5        0.0051375141 
    206000   68080.5        4.9983044e-07  68080.5        0.0052003582 
    207000   68080.5        5.0469494e-07  68080.5        0.0052820742 
    208000   68080.5        5.0958299e-07  68080.5        0.0053329915 
    209000   68080.5        5.1449461e-07  68080.5        0.0053841541 
    210000   68080.5        5.1942978e-07  68080.5        0.0054107269 
    211000   68080.5        5.2438851e-07  68080.5        0.005474798  
    212000   68080.5        5.293708e-07   68080.5        0.0055453232 
    213000   68080.5        5.3437664e-07  68080.5        0.0055477969 
    214000   68080.5        5.3940604e-07  68080.5        0.00558156   
    215000   68080.5        5.4445899e-07  68080.5        0.0056776567 
    216000   68080.5        5.4953551e-07  68080.5        0.0056932841 
    217000   68080.5        5.5463558e-07  68080.5        0.0057712451 
    218000   68080.5        5.597592e-07   68080.5        0.0058184074 
    219000   68080.5        5.6490639e-07  68080.5        0.0058409798 
    220000   68080.5        5.7007713e-07  68080.5        0.0059507211 
    221000   68080.5        5.7527143e-07  68080.5        0.0059799931 
    222000   68080.5        5.8048928e-07  68080.5        0.006059181  
    223000   68080.5        5.8573069e-07  68080.5        0.0060889438 
    224000   68080.5        5.9099566e-07  68080.5        0.0061437872 
    225000   68080.5        5.9628419e-07  68080.5        0.0062175024 
    226000   68080.5        6.0159627e-07  68080.5        0.0062542102 
    227000   68080.5        6.0693191e-07  68080.5        0.0063159986 
    228000   68080.5        6.1229111e-07  68080.5        0.0063780323 
    229000   68080.5        6.1767386e-07  68080.5        0.0063782234 
    230000   68080.5        6.2308017e-07  68080.5        0.0064593743 
    231000   68080.5        6.2851004e-07  68080.5        0.0065593972 
    232000   68080.5        6.3396346e-07  68080.5        0.0066099948 
    233000   68080.5        6.3944044e-07  68080.5        0.0066173762 
    234000   68080.5        6.4494098e-07  68080.5        0.0067119264 
    235000   68080.5        6.5046507e-07  68080.5        0.0067943043 
    236000   68080.5        6.5601272e-07  68080.5        0.00686451   
    237000   68080.5        6.6158393e-07  68080.5        0.0069101257 
    238000   68080.5        6.671787e-07   68080.5        0.0069311517 
    239000   68080.5        6.7279702e-07  68080.5        0.0069958846 
    240000   68080.5        6.784389e-07   68080.5        0.0070670718 
    241000   68080.5        6.8410433e-07  68080.5        0.0071074604 
    242000   68080.5        6.8979333e-07  68080.5        0.0071667207 
    243000   68080.5        6.9550588e-07  68080.5        0.0072448529 
    244000   68080.5        7.0124198e-07  68080.5        0.007236307  
    245000   68080.5        7.0700165e-07  68080.5        0.0073646005 
    246000   68080.5        7.1278487e-07  68080.5        0.0074062159 
    247000   68080.5        7.1859164e-07  68080.5        0.0074915385 
    248000   68080.5        7.2442198e-07  68080.5        0.0075150182 
    249000   68080.5        7.3027587e-07  68080.5        0.0076008315 
    250000   68080.5        7.3615332e-07  68080.5        0.0076744725 
    251000   68080.5        7.4205432e-07  68080.5        0.0077173149 
    252000   68080.5        7.4797889e-07  68080.5        0.0078038644 
    253000   68080.5        7.53927e-07    68080.5        0.0078099446 
    254000   68080.5        7.5989868e-07  68080.5        0.0079218201 
    255000   68080.5        7.6589391e-07  68080.5        0.0079470175 
    256000   68080.5        7.719127e-07   68080.5        0.0080097133 
    257000   68080.5        7.7795505e-07  68080.5        0.0080974896 
    258000   68080.5        7.8402095e-07  68080.5        0.0081482585 
    259000   68080.5        7.9011041e-07  68080.5        0.0082489433 
    260000   68080.5        7.9622343e-07  68080.5        0.0082629499 
    261000   68080.5        8.0236e-07     68080.5        0.0083268726 
    262000   68080.5        8.0852013e-07  68080.5        0.0084282936 
    263000   68080.5        8.1470382e-07  68080.5        0.0084740805 
    264000   68080.5        8.2091107e-07  68080.5        0.0085697834 
    265000   68080.5        8.2714187e-07  68080.5        0.00862227   
    266000   68080.5        8.3339623e-07  68080.5        0.0086750019 
    267000   68080.5        8.3967414e-07  68080.5        0.0087403968 
    268000   68080.5        8.4597561e-07  68080.5        0.008812246  
    269000   68080.5        8.5230064e-07  68080.5        0.0088595053 
    270000   68080.5        8.5864923e-07  68080.5        0.0089939334 
    271000   68080.5        8.6502137e-07  68080.5        0.0089671776 
    272000   68080.5        8.7141707e-07  68080.5        0.0091083052 
    273000   68080.5        8.7783633e-07  68080.5        0.0091627549 
    274000   68080.5        8.8427914e-07  68080.5        0.009180197  
    275000   68080.5        8.9074551e-07  68080.5        0.0092910167 
    276000   68080.5        8.9723544e-07  68080.5        0.0093027408 
    277000   68080.5        9.0374893e-07  68080.5        0.0094326778 
    278000   68080.5        9.1028597e-07  68080.5        0.0094759367 
    279000   68080.5        9.1684657e-07  68080.5        0.0095566939 
    280000   68080.5        9.2343072e-07  68080.5        0.0096252789 
    281000   68080.5        9.3003843e-07  68080.5        0.0096630651 
    282000   68080.5        9.366697e-07   68080.5        0.0097569761 
    283000   68080.5        9.4332453e-07  68080.5        0.0098387148 
    284000   68080.5        9.5000291e-07  68080.5        0.0099393254 
    285000   68080.5        9.5670485e-07  68080.5        0.0099718844 
    286000   68080.5        9.6343035e-07  68080.5        0.010060568  
    287000   68080.5        9.701794e-07   68080.5        0.010155706  
    288000   68080.5        9.7695201e-07  68080.5        0.010145539  
    289000   68080.5        9.8374818e-07  68080.5        0.010247377  
    290000   68080.5        9.905679e-07   68080.5        0.010299789  
    291000   68080.5        9.9741119e-07  68080.5        0.010402118  
    292000   68080.5        1.004278e-06   68080.5        0.010473647  
    293000   68080.5        1.0111684e-06  68080.5        0.010545422  
    294000   68080.5        1.0180824e-06  68080.5        0.010605025  
    295000   68080.5        1.0250199e-06  68080.5        0.010652455  
    296000   68080.5        1.0319809e-06  68080.5        0.01070634   
    297000   68080.5        1.0389656e-06  68080.5        0.010803932  
    298000   68080.5        1.0459737e-06  68080.5        0.01089556   
    299000   68080.5        1.0530055e-06  68080.5        0.01095639   
    300000   68080.5        1.0600608e-06  68080.5        0.01098642   
    301000   68080.5        1.0671396e-06  68080.5        0.011134664  
    302000   68080.5        1.074242e-06   68080.5        0.011165186  
    303000   68080.5        1.081368e-06   68080.5        0.01126425   
    304000   68080.5        1.0885175e-06  68080.5        0.011344933  
    305000   68080.5        1.0956906e-06  68080.5        0.011425861  
    306000   68080.5        1.1028872e-06  68080.5        0.011562914  
    307000   68080.5        1.1101074e-06  68080.5        0.011588454  
    308000   68080.5        1.1173512e-06  68080.5        0.011620448  
    309000   68080.5        1.1246185e-06  68080.5        0.011739611  
    310000   68080.5        1.1319093e-06  68080.5        0.011790722  
    311000   68080.5        1.1392238e-06  68080.5        0.011854497  
    312000   68080.5        1.1465617e-06  68080.5        0.011943351  
    313000   68080.5        1.1539233e-06  68080.5        0.011970364  
    314000   68080.5        1.1613084e-06  68080.5        0.012121797  
    315000   68080.5        1.168717e-06   68080.5        0.012174135  
    316000   68080.5        1.1761492e-06  68080.5        0.012257763  
    317000   68080.5        1.183605e-06   68080.5        0.012304383  
    318000   68080.5        1.1910843e-06  68080.5        0.012413337  
    319000   68080.5        1.1985872e-06  68080.5        0.012472865  
    320000   68080.5        1.2061136e-06  68080.5        0.012514013  
    321000   68080.5        1.2136636e-06  68080.5        0.012642329  
    322000   68080.5        1.2212371e-06  68080.5        0.012752264  
    323000   68080.5        1.2288342e-06  68080.5        0.012800357  
    324000   68080.5        1.2364549e-06  68080.5        0.01287353   
    325000   68080.5        1.2440991e-06  68080.5        0.013015245  
    326000   68080.5        1.2517669e-06  68080.5        0.013051656  
    327000   68080.5        1.2594582e-06  68080.5        0.013131774  
    328000   68080.5        1.2671731e-06  68080.5        0.013218346  
    329000   68080.5        1.2749115e-06  68080.5        0.013280329  
    330000   68080.5        1.2826735e-06  68080.5        0.013367392  
    331000   68080.5        1.2904591e-06  68080.5        0.013448491  
    332000   68080.5        1.2982682e-06  68080.5        0.013548462  
    333000   68080.5        1.3061009e-06  68080.5        0.013623844  
    334000   68080.5        1.3139571e-06  68080.5        0.013730515  
    335000   68080.5        1.3218369e-06  68080.5        0.013806387  
    336000   68080.5        1.3297402e-06  68080.5        0.013832834  
    337000   68080.5        1.3376671e-06  68080.5        0.013958868  
    338000   68080.5        1.3456176e-06  68080.5        0.014060312  
    339000   68080.5        1.3535916e-06  68080.5        0.01411233   
    340000   68080.5        1.3615892e-06  68080.5        0.014195638  
    341000   68080.5        1.3696103e-06  68080.5        0.014248148  
    342000   68080.5        1.377655e-06   68080.5        0.014369199  
    343000   68080.5        1.3857232e-06  68080.5        0.014428408  
    344000   68080.5        1.393815e-06   68080.5        0.014525115  
    345000   68080.5        1.4019304e-06  68080.5        0.014646903  
    346000   68080.5        1.4100693e-06  68080.5        0.014657178  
    347000   68080.5        1.4182318e-06  68080.5        0.014773247  
    348000   68080.5        1.4264178e-06  68080.5        0.014839892  
    349000   68080.5        1.4346274e-06  68080.5        0.014944035  
    350000   68080.5        1.4428605e-06  68080.5        0.015023588  
    351000   68080.5        1.4511172e-06  68080.5        0.015103387  
    352000   68080.5        1.4593975e-06  68080.5        0.015195848  
    353000   68080.5        1.4677013e-06  68080.5        0.015257511  
    354000   68080.5        1.4760286e-06  68080.5        0.015356672  
    355000   68080.5        1.4843796e-06  68080.5        0.015468496  
    356000   68080.5        1.492754e-06   68080.5        0.015592983  
    357000   68080.5        1.5011521e-06  68080.5        0.015649418  
    358000   68080.5        1.5095737e-06  68080.5        0.015774396  
    359000   68080.5        1.5180188e-06  68080.5        0.015812696  
    360000   68080.5        1.5264875e-06  68080.5        0.01585745   
    361000   68080.5        1.5349798e-06  68080.5        0.015983164  
    362000   68080.5        1.5434956e-06  68080.5        0.016090497  
    363000   68080.5        1.552035e-06   68080.5        0.016154614  
    364000   68080.5        1.5605979e-06  68080.5        0.016225184  
    365000   68080.5        1.5691844e-06  68080.5        0.016370506  
    366000   68080.5        1.5777945e-06  68080.5        0.016435359  
    367000   68080.5        1.5864281e-06  68080.5        0.016519084  
    368000   68080.5        1.5950852e-06  68080.5        0.016652724  
    369000   68080.5        1.603766e-06   68080.5        0.01668106   
    370000   68080.5        1.6124702e-06  68080.5        0.016827609  
    371000   68080.5        1.6211981e-06  68080.5        0.016961986  
    372000   68080.5        1.6299495e-06  68080.5        0.016997267  
    373000   68080.5        1.6387244e-06  68080.5        0.017063837  
    374000   68080.5        1.6475229e-06  68080.5        0.017130653  
    375000   68080.5        1.656345e-06   68080.5        0.017253593  
    376000   68080.5        1.6651906e-06  68080.5        0.017382988  
    377000   68080.5        1.6740598e-06  68080.5        0.01745054   
    378000   68080.5        1.6829525e-06  68080.5        0.017468667  
    379000   68080.5        1.6918688e-06  68080.5        0.017685721  
    380000   68080.5        1.7008086e-06  68080.5        0.017741592  
    381000   68080.5        1.709772e-06   68080.5        0.017797708  
    382000   68080.5        1.718759e-06   68080.5        0.017934784  
    383000   68080.5        1.7277695e-06  68080.5        0.018010017  
    384000   68080.5        1.7368036e-06  68080.5        0.018085495  
    385000   68080.5        1.7458612e-06  68080.5        0.018198472  
    386000   68080.5        1.7549424e-06  68080.5        0.018299276  
    387000   68080.5        1.7640471e-06  68080.5        0.018356865  
    388000   68080.5        1.7731754e-06  68080.5        0.018451951  
    389000   68080.5        1.7823273e-06  68080.5        0.018559701  
    390000   68080.5        1.7915027e-06  68080.5        0.018655278  
    391000   68080.5        1.8007017e-06  68080.5        0.018744892  
    392000   68080.5        1.8099242e-06  68080.5        0.018884421  
    393000   68080.5        1.8191703e-06  68080.5        0.018955899  
    394000   68080.5        1.8284399e-06  68080.5        0.019033832  
    395000   68080.5        1.8377331e-06  68080.5        0.019149262  
    396000   68080.5        1.8470499e-06  68080.5        0.019252521  
    397000   68080.5        1.8563902e-06  68080.5        0.019374651  
    398000   68080.5        1.8657541e-06  68080.5        0.019447356  
    399000   68080.5        1.8751415e-06  68080.5        0.01955135   
    400000   68080.5        1.8845525e-06  68080.5        0.019636964  
    401000   68080.5        1.893987e-06   68080.5        0.019797329  
    402000   68080.5        1.9034451e-06  68080.5        0.019852389  
    403000   68080.5        1.9129268e-06  68080.5        0.019882859  
    404000   68080.5        1.922432e-06   68080.5        0.020012916  
    405000   68080.5        1.9319608e-06  68080.5        0.020149427  
    406000   68080.5        1.9415131e-06  68080.5        0.020205468  
    407000   68080.5        1.951089e-06   68080.5        0.020323843  
    408000   68080.5        1.9606884e-06  68080.5        0.020405211  
    409000   68080.5        1.9703114e-06  68080.5        0.020536495  
    410000   68080.5        1.979958e-06   68080.5        0.020649397  
    411000   68080.5        1.9896281e-06  68080.5        0.020694248  
    412000   68080.5        1.9993217e-06  68080.5        0.020838686  
    413000   68080.5        2.009039e-06   68080.5        0.02097716   
    414000   68080.5        2.0187797e-06  68080.5        0.021028956  
    415000   68080.5        2.0285441e-06  68080.5        0.021136876  
    416000   68080.5        2.038332e-06   68080.5        0.021220207  
    417000   68080.5        2.0481434e-06  68080.5        0.021378289  
    418000   68080.5        2.0579784e-06  68080.5        0.02141244   
    419000   68080.5        2.067837e-06   68080.5        0.021552386  
    420000   68080.5        2.0777191e-06  68080.5        0.021673952  
    421000   68080.5        2.0876248e-06  68080.5        0.021770927  
    422000   68080.5        2.097554e-06   68080.5        0.021812268  
    423000   68080.5        2.1075068e-06  68080.5        0.021940779  
    424000   68080.5        2.1174832e-06  68080.5        0.022032281  
    425000   68080.5        2.1274831e-06  68080.5        0.022130238  
    426000   68080.5        2.1375066e-06  68080.5        0.022222232  
    427000   68080.5        2.1475536e-06  68080.5        0.022401394  
    428000   68080.5        2.1576242e-06  68080.5        0.022456625  
    429000   68080.5        2.1677183e-06  68080.5        0.022599025  
    430000   68080.5        2.177836e-06   68080.5        0.022710627  
    431000   68080.5        2.1879772e-06  68080.5        0.022779012  
    432000   68080.5        2.198142e-06   68080.5        0.022922148  
    433000   68080.5        2.2083304e-06  68080.5        0.023040695  
    434000   68080.5        2.2185423e-06  68080.5        0.023116025  
    435000   68080.5        2.2287778e-06  68080.5        0.023197809  
    436000   68080.5        2.2390368e-06  68080.5        0.023292256  
    437000   68080.5        2.2493194e-06  68080.5        0.023436619  
    438000   68080.5        2.2596256e-06  68080.5        0.023556393  
    439000   68080.5        2.2699553e-06  68080.5        0.023626741  
    440000   68080.5        2.2803085e-06  68080.5        0.023753214  
    441000   68080.5        2.2906853e-06  68080.5        0.023867514  
    442000   68080.5        2.3010857e-06  68080.5        0.023994478  
    443000   68080.5        2.3115096e-06  68080.5        0.024090643  
    444000   68080.5        2.3219571e-06  68080.5        0.024168427  
    445000   68080.5        2.3324282e-06  68080.5        0.024308544  
    446000   68080.5        2.3429228e-06  68080.5        0.024405446  
    447000   68080.5        2.3534409e-06  68080.5        0.024502592  
    448000   68080.5        2.3639826e-06  68080.5        0.024631028  
    449000   68080.5        2.3745479e-06  68080.5        0.024759709  
    450000   68080.5        2.3851368e-06  68080.5        0.024857592  
    451000   68080.5        2.3957491e-06  68080.5        0.024949511  
    452000   68080.5        2.4063851e-06  68080.5        0.025035467  
    453000   68080.5        2.4170446e-06  68080.5        0.025152712  
    454000   68080.5        2.4277276e-06  68080.5        0.025313665  
    455000   68080.5        2.4384343e-06  68080.5        0.02538173   
    456000   68080.5        2.4491644e-06  68080.5        0.025530756  
    457000   68080.5        2.4599181e-06  68080.5        0.025624147  
    458000   68080.5        2.4706954e-06  68080.5        0.025711576  
    459000   68080.5        2.4814963e-06  68080.5        0.025842711  
    460000   68080.5        2.4923207e-06  68080.5        0.0259803    
    461000   68080.5        2.5031686e-06  68080.5        0.026049838  
    462000   68080.5        2.5140401e-06  68080.5        0.026156874  
    463000   68080.5        2.5249352e-06  68080.5        0.026288991  
    464000   68080.5        2.5358538e-06  68080.5        0.026408935  
    465000   68080.5        2.546796e-06   68080.5        0.02650429   
    466000   68080.5        2.5577618e-06  68080.5        0.026618516  
    467000   68080.5        2.5687511e-06  68080.5        0.02677645   
    468000   68080.5        2.5797639e-06  68080.5        0.026847705  
    469000   68080.5        2.5908003e-06  68080.5        0.027037174  
    470000   68080.5        2.6018603e-06  68080.5        0.027102711  
    471000   68080.5        2.6129438e-06  68080.5        0.027174703  
    472000   68080.5        2.6240509e-06  68080.5        0.02735249   
    473000   68080.5        2.6351815e-06  68080.5        0.027456016  
    474000   68080.5        2.6463357e-06  68080.5        0.027584624  
    475000   68080.5        2.6575135e-06  68080.5        0.027626553  
    476000   68080.5        2.6687148e-06  68080.5        0.027755651  
    477000   68080.5        2.6799397e-06  68080.5        0.027947082  
    478000   68080.5        2.6911881e-06  68080.5        0.028020791  
    479000   68080.5        2.7024601e-06  68080.5        0.028163043  
    480000   68080.5        2.7137556e-06  68080.5        0.02825587   
    481000   68080.5        2.7250747e-06  68080.5        0.028373777  
    482000   68080.5        2.7364173e-06  68080.5        0.028467094  
    483000   68080.5        2.7477835e-06  68080.5        0.02859791   
    484000   68080.5        2.7591733e-06  68080.5        0.028797268  
    485000   68080.5        2.7705866e-06  68080.5        0.028816816  
    486000   68080.5        2.7820235e-06  68080.5        0.028966994  
    487000   68080.5        2.7934839e-06  68080.5        0.029105     
    488000   68080.5        2.8049679e-06  68080.5        0.02924946   
    489000   68080.5        2.8164755e-06  68080.5        0.029332077  
    490000   68080.5        2.8280066e-06  68080.5        0.029439775  
    491000   68080.5        2.8395612e-06  68080.5        0.029553928  
    492000   68080.5        2.8511395e-06  68080.5        0.029724205  
    493000   68080.5        2.8627412e-06  68080.5        0.029820221  
    494000   68080.5        2.8743666e-06  68080.5        0.029922692  
    495000   68080.5        2.8860155e-06  68080.5        0.03006887   
    496000   68080.5        2.8976879e-06  68080.5        0.030215293  
    497000   68080.5        2.9093839e-06  68080.5        0.030293665  
    498000   68080.5        2.9211035e-06  68080.5        0.03043437   
    499000   68080.5        2.9328466e-06  68080.5        0.030500815  
    500000   68080.5        2.9446133e-06  68080.5        0.03064822   
    501000   68080.5        2.9564035e-06  68080.5        0.030808287  
    502000   68080.5        2.9682173e-06  68080.5        0.030943765  
    503000   68080.5        2.9800546e-06  68080.5        0.031048445  
    504000   68080.5        2.9919155e-06  68080.5        0.031184413  
    505000   68080.5        3.0038e-06     68080.5        0.031283375  
    506000   68080.5        3.015708e-06   68080.5        0.031407416  
    507000   68080.5        3.0276396e-06  68080.5        0.031531704  
    508000   68080.5        3.0395947e-06  68080.5        0.03158173   
    509000   68080.5        3.0515734e-06  68080.5        0.031781014  
    510000   68080.5        3.0635756e-06  68080.5        0.031906038  
    511000   68080.5        3.0756014e-06  68080.5        0.032031306  
    512000   68080.5        3.0876508e-06  68080.5        0.032144403  
    513000   68080.5        3.0997237e-06  68080.5        0.032294998  
    514000   68080.5        3.1118202e-06  68080.5        0.032402376  
    515000   68080.5        3.1239402e-06  68080.5        0.032534835  
    516000   68080.5        3.1360838e-06  68080.5        0.032642704  
    517000   68080.5        3.1482509e-06  68080.5        0.032794281  
    518000   68080.5        3.1604416e-06  68080.5        0.032915058  
    519000   68080.5        3.1726559e-06  68080.5        0.033079543  
    520000   68080.5        3.1848937e-06  68080.5        0.03315735   
    521000   68080.5        3.1971551e-06  68080.5        0.033309908  
    522000   68080.5        3.20944e-06    68080.5        0.033450293  
    523000   68080.5        3.2217485e-06  68080.5        0.033504001  
    524000   68080.5        3.2340805e-06  68080.5        0.033675921  
    525000   68080.5        3.2464361e-06  68080.5        0.033823252  
    526000   68080.5        3.2588153e-06  68080.5        0.033977037  
    527000   68080.5        3.271218e-06   68080.5        0.034044143  
    528000   68080.5        3.2836443e-06  68080.5        0.034248089  
    529000   68080.5        3.2960941e-06  68080.5        0.034321896  
    530000   68080.5        3.3085675e-06  68080.5        0.034451827  
    531000   68080.5        3.3210644e-06  68080.5        0.034631674  
    532000   68080.5        3.3335849e-06  68080.5        0.034743469  
    533000   68080.5        3.346129e-06   68080.5        0.03485551   
    534000   68080.5        3.3586966e-06  68080.5        0.035011258  
    535000   68080.5        3.3712877e-06  68080.5        0.035123789  
    536000   68080.5        3.3839025e-06  68080.5        0.03526761   
    537000   68080.5        3.3965407e-06  68080.5        0.035386842  
    538000   68080.5        3.4092026e-06  68080.5        0.035512527  
    539000   68080.5        3.421888e-06   68080.5        0.03562604   
    540000   68080.5        3.4345969e-06  68080.5        0.035764634  
    541000   68080.5        3.4473294e-06  68080.5        0.035928308  
    542000   68080.5        3.4600855e-06  68080.5        0.036073601  
    543000   68080.5        3.4728651e-06  68080.5        0.036194305  
    544000   68080.5        3.4856683e-06  68080.5        0.036296627  
    545000   68080.5        3.498495e-06   68080.5        0.036399195  
    546000   68080.5        3.5113453e-06  68080.5        0.036576514  
    547000   68080.5        3.5242192e-06  68080.5        0.036698199  
    548000   68080.5        3.5371166e-06  68080.5        0.036857382  
    549000   68080.5        3.5500375e-06  68080.5        0.036991975  
    550000   68080.5        3.5629821e-06  68080.5        0.037114396  
    551000   68080.5        3.5759501e-06  68080.5        0.037243272  
    552000   68080.5        3.5889418e-06  68080.5        0.037372392  
    553000   68080.5        3.601957e-06   68080.5        0.037501759  
    554000   68080.5        3.6149957e-06  68080.5        0.037662414  
    555000   68080.5        3.628058e-06   68080.5        0.037779853  
    556000   68080.5        3.6411439e-06  68080.5        0.037903747  
    557000   68080.5        3.6542533e-06  68080.5        0.038077556  
    558000   68080.5        3.6673863e-06  68080.5        0.038226776  
    559000   68080.5        3.6805428e-06  68080.5        0.03832657   
    560000   68080.5        3.6937229e-06  68080.5        0.038494907  
    561000   68080.5        3.7069265e-06  68080.5        0.038620027  
    562000   68080.5        3.7201537e-06  68080.5        0.038776437  
    563000   68080.5        3.7334045e-06  68080.5        0.038908257  
    564000   68080.5        3.7466788e-06  68080.5        0.03899686   
    565000   68080.5        3.7599767e-06  68080.5        0.039191259  
    566000   68080.5        3.7732981e-06  68080.5        0.039323815  
    567000   68080.5        3.7866431e-06  68080.5        0.039431781  
    568000   68080.5        3.8000116e-06  68080.5        0.039539993  
    569000   68080.5        3.8134038e-06  68080.5        0.039685703  
    570000   68080.5        3.8268194e-06  68080.5        0.039825449  
    571000   68080.5        3.8402586e-06  68080.5        0.039959232  
    572000   68080.5        3.8537214e-06  68080.5        0.040142931  
    573000   68080.5        3.8672077e-06  68080.5        0.040258579  
    574000   68080.5        3.8807176e-06  68080.5        0.040461395  
    575000   68080.5        3.8942511e-06  68080.5        0.04054028   
    576000   68080.5        3.9078081e-06  68080.5        0.040718752  
    577000   68080.5        3.9213886e-06  68080.5        0.040847798  
    578000   68080.5        3.9349927e-06  68080.5        0.041001925  
    579000   68080.5        3.9486204e-06  68080.5        0.041137671  
    580000   68080.5        3.9622716e-06  68080.5        0.041273663  
    581000   68080.5        3.9759464e-06  68080.5        0.041403691  
    582000   68080.5        3.9896447e-06  68080.5        0.041583635  
    583000   68080.5        4.0033666e-06  68080.5        0.041670692  
    584000   68080.5        4.0171121e-06  68080.5        0.041863544  
    585000   68080.5        4.0308811e-06  68080.5        0.04201318   
    586000   68080.5        4.0446737e-06  68080.5        0.042175479  
    587000   68080.5        4.0584898e-06  68080.5        0.042294562  
    588000   68080.5        4.0723295e-06  68080.5        0.042457352  
    589000   68080.5        4.0861927e-06  68080.5        0.042564508  
    590000   68080.5        4.1000795e-06  68080.5        0.042696744  
    591000   68080.5        4.1139899e-06  68080.5        0.042816808  
    592000   68080.5        4.1279238e-06  68080.5        0.042999206  
    593000   68080.5        4.1418813e-06  68080.5        0.043138388  
    594000   68080.5        4.1558623e-06  68080.5        0.043308859  
    595000   68080.5        4.1698669e-06  68080.5        0.043417487  
    596000   68080.5        4.183895e-06   68080.5        0.043569822  
    597000   68080.5        4.1979467e-06  68080.5        0.043728611  
    598000   68080.5        4.2120219e-06  68080.5        0.043887646  
    599000   68080.5        4.2261207e-06  68080.5        0.044053135  
    600000   68080.5        4.2402431e-06  68080.5        0.044181617  
    601000   68080.5        4.254389e-06   68080.5        0.044366223  
    602000   68080.5        4.2685585e-06  68080.5        0.044439316  
    603000   68080.5        4.2827515e-06  68080.5        0.044605787  
    604000   68080.5        4.2969681e-06  68080.5        0.044747667  
    605000   68080.5        4.3112083e-06  68080.5        0.044970508  
    606000   68080.5        4.325472e-06   68080.5        0.045044582  
    607000   68080.5        4.3397593e-06  68080.5        0.045162364  
    608000   68080.5        4.3540701e-06  68080.5        0.045348688  
    609000   68080.5        4.3684045e-06  68080.5        0.045541466  
    610000   68080.5        4.3827624e-06  68080.5        0.045610313  
    611000   68080.5        4.3971439e-06  68080.5        0.045784956  
    612000   68080.5        4.4115489e-06  68080.5        0.045959844  
    613000   68080.5        4.4259775e-06  68080.5        0.046128768  
    614000   68080.5        4.4404297e-06  68080.5        0.046273103  
    615000   68080.5        4.4549054e-06  68080.5        0.0464301    
    616000   68080.5        4.4694047e-06  68080.5        0.04655009   
    617000   68080.5        4.4839275e-06  68080.5        0.046682743  
    618000   68080.5        4.4984739e-06  68080.5        0.046846686  
    619000   68080.5        4.5130439e-06  68080.5        0.0470295    
    620000   68080.5        4.5276374e-06  68080.5        0.047175307  
    621000   68080.5        4.5422544e-06  68080.5        0.04731515   
    622000   68080.5        4.556895e-06   68080.5        0.04744903   
    623000   68080.5        4.5715592e-06  68080.5        0.047589365  
    624000   68080.5        4.586247e-06   68080.5        0.047760988  
    625000   68080.5        4.6009582e-06  68080.5        0.047914231  
    626000   68080.5        4.6156931e-06  68080.5        0.048073927  
    627000   68080.5        4.6304515e-06  68080.5        0.048227661  
    628000   68080.5        4.6452334e-06  68080.5        0.048394057  
    629000   68080.5        4.660039e-06   68080.5        0.048560699  
    630000   68080.5        4.674868e-06   68080.5        0.048696542  
    631000   68080.5        4.6897207e-06  68080.5        0.048826422  
    632000   68080.5        4.7045968e-06  68080.5        0.049000008  
    633000   68080.5        4.7194966e-06  68080.5        0.049149005  
    634000   68080.5        4.7344199e-06  68080.5        0.049316874  
    635000   68080.5        4.7493667e-06  68080.5        0.0494229    
    636000   68080.5        4.7643372e-06  68080.5        0.049578842  
    637000   68080.5        4.7793311e-06  68080.5        0.04977849   
    638000   68080.5        4.7943487e-06  68080.5        0.049997011  
    639000   68080.5        4.8093897e-06  68080.5        0.05014748   
    640000   68080.5        4.8244544e-06  68080.5        0.050304404  
    641000   68080.5        4.8395426e-06  68080.5        0.050436737  
    642000   68080.5        4.8546543e-06  68080.5        0.050544481  
    643000   68080.5        4.8697897e-06  68080.5        0.050751811  
    644000   68080.5        4.8849485e-06  68080.5        0.050847628  
    645000   68080.5        4.9001309e-06  68080.5        0.051030613  
    646000   68080.5        4.9153369e-06  68080.5        0.051220053  
    647000   68080.5        4.9305665e-06  68080.5        0.051322814  
    648000   68080.5        4.9458196e-06  68080.5        0.051512745  
    649000   68080.5        4.9610962e-06  68080.5        0.051659459  
    650000   68080.5        4.9763964e-06  68080.5        0.051837463  
    651000   68080.5        4.9917202e-06  68080.5        0.052003294  
    652000   68080.5        5.0070675e-06  68080.5        0.052144536  
    653000   68080.5        5.0224384e-06  68080.5        0.052310858  
    654000   68080.5        5.0378328e-06  68080.5        0.052539514  
    655000   68080.5        5.0532508e-06  68080.5        0.052712535  
    656000   68080.5        5.0686924e-06  68080.5        0.052798879  
    657000   68080.5        5.0841575e-06  68080.5        0.052941348  
    658000   68080.5        5.0996462e-06  68080.5        0.053127523  
    659000   68080.5        5.1151584e-06  68080.5        0.053258065  
    660000   68080.5        5.1306942e-06  68080.5        0.053407478  
    661000   68080.5        5.1462535e-06  68080.5        0.053581972  
    662000   68080.5        5.1618364e-06  68080.5        0.053769129  
    663000   68080.5        5.1774428e-06  68080.5        0.053919279  
    664000   68080.5        5.1930729e-06  68080.5        0.054144179  
    665000   68080.5        5.2087264e-06  68080.5        0.054245149  
    666000   68080.5        5.2244035e-06  68080.5        0.054408452  
    667000   68080.5        5.2401042e-06  68080.5        0.054572001  
    668000   68080.5        5.2558285e-06  68080.5        0.054773048  
    669000   68080.5        5.2715762e-06  68080.5        0.054955714  
    670000   68080.5        5.2873476e-06  68080.5        0.055082746  
    671000   68080.5        5.3031425e-06  68080.5        0.055234859  
    672000   68080.5        5.318961e-06   68080.5        0.05536859   
    673000   68080.5        5.334803e-06   68080.5        0.055614326  
    674000   68080.5        5.3506686e-06  68080.5        0.055729922  
    675000   68080.5        5.3665577e-06  68080.5        0.05591406   
    676000   68080.5        5.3824704e-06  68080.5        0.056086026  
    677000   68080.5        5.3984066e-06  68080.5        0.056239611  
    678000   68080.5        5.4143664e-06  68080.5        0.056387233  
    679000   68080.5        5.4303498e-06  68080.5        0.056559935  
    680000   68080.5        5.4463567e-06  68080.5        0.056720465  
    681000   68080.5        5.4623872e-06  68080.5        0.056912284  
    682000   68080.5        5.4784412e-06  68080.5        0.057104349  
    683000   68080.5        5.4945188e-06  68080.5        0.057234571  
    684000   68080.5        5.5106199e-06  68080.5        0.057402291  
    685000   68080.5        5.5267447e-06  68080.5        0.05760751   
    686000   68080.5        5.5428929e-06  68080.5        0.057719841  
    687000   68080.5        5.5590647e-06  68080.5        0.057906924  
    688000   68080.5        5.5752601e-06  68080.5        0.058044582  
    689000   68080.5        5.591479e-06   68080.5        0.058244573  
    690000   68080.5        5.6077215e-06  68080.5        0.058438601  
    691000   68080.5        5.6239876e-06  68080.5        0.058614248  
    692000   68080.5        5.6402772e-06  68080.5        0.058765305  
    693000   68080.5        5.6565903e-06  68080.5        0.05895386   
    694000   68080.5        5.672927e-06   68080.5        0.059074363  
    695000   68080.5        5.6892873e-06  68080.5        0.059213739  
    696000   68080.5        5.7056711e-06  68080.5        0.059434074  
    697000   68080.5        5.7220785e-06  68080.5        0.059586358  
    698000   68080.5        5.7385095e-06  68080.5        0.05977614   
    699000   68080.5        5.754964e-06   68080.5        0.059978585  
    700000   68080.5        5.771442e-06   68080.5        0.060094352  
    701000   68080.5        5.7879436e-06  68080.5        0.060309706  
    702000   68080.5        5.8044688e-06  68080.5        0.060481843  
    703000   68080.5        5.8210175e-06  68080.5        0.060623182  
    704000   68080.5        5.8375898e-06  68080.5        0.060789601  
    705000   68080.5        5.8541856e-06  68080.5        0.061012145  
    706000   68080.5        5.870805e-06   68080.5        0.061123175  
    707000   68080.5        5.887448e-06   68080.5        0.061315166  
    708000   68080.5        5.9041145e-06  68080.5        0.061519819  
    709000   68080.5        5.9208046e-06  68080.5        0.061631586  
    710000   68080.5        5.9375182e-06  68080.5        0.061861566  
    711000   68080.5        5.9542554e-06  68080.5        0.06199245   
    712000   68080.5        5.9710161e-06  68080.5        0.06216704   
    713000   68080.5        5.9878004e-06  68080.5        0.062317042  
    714000   68080.5        6.0046083e-06  68080.5        0.062548003  
    715000   68080.5        6.0214397e-06  68080.5        0.062692286  
    716000   68080.5        6.0382946e-06  68080.5        0.062867859  
    717000   68080.5        6.0551732e-06  68080.5        0.063043676  
    718000   68080.5        6.0720753e-06  68080.5        0.063213531  
    719000   68080.5        6.0890009e-06  68080.5        0.063458137  
    720000   68080.5        6.1059501e-06  68080.5        0.063566394  
    721000   68080.5        6.1229228e-06  68080.5        0.063749402  
    722000   68080.5        6.1399191e-06  68080.5        0.063932656  
    723000   68080.5        6.156939e-06   68080.5        0.06414099   
    724000   68080.5        6.1739824e-06  68080.5        0.064287482  
    725000   68080.5        6.1910494e-06  68080.5        0.064483889  
    726000   68080.5        6.2081399e-06  68080.5        0.064711586  
    727000   68080.5        6.225254e-06   68080.5        0.06482777   
    728000   68080.5        6.2423917e-06  68080.5        0.065031122  
    729000   68080.5        6.2595529e-06  68080.5        0.065197467  
    730000   68080.5        6.2767377e-06  68080.5        0.065407519  
    731000   68080.5        6.293946e-06   68080.5        0.065537102  
    732000   68080.5        6.3111778e-06  68080.5        0.065766271  
    733000   68080.5        6.3284333e-06  68080.5        0.065946015  
    734000   68080.5        6.3457123e-06  68080.5        0.066132214  
    735000   68080.5        6.3630148e-06  68080.5        0.06625036   
    736000   68080.5        6.3803409e-06  68080.5        0.066499137  
    737000   68080.5        6.3976906e-06  68080.5        0.066710907  
    738000   68080.5        6.4150638e-06  68080.5        0.06678012   
    739000   68080.5        6.4324606e-06  68080.5        0.067017215  
    740000   68080.5        6.4498809e-06  68080.5        0.067155215  
    741000   68080.5        6.4673248e-06  68080.5        0.067399011  
    742000   68080.5        6.4847922e-06  68080.5        0.067518875  
    743000   68080.5        6.5022832e-06  68080.5        0.067744535  
    744000   68080.5        6.5197978e-06  68080.5        0.06797044   
    745000   68080.5        6.5373359e-06  68080.5        0.068072414  
    746000   68080.5        6.5548976e-06  68080.5        0.068273974  
    747000   68080.5        6.5724828e-06  68080.5        0.068457154  
    748000   68080.5        6.5900916e-06  68080.5        0.068603326  
    749000   68080.5        6.607724e-06   68080.5        0.068849084  
    750000   68080.5        6.6253799e-06  68080.5        0.069008165  
    751000   68080.5        6.6430593e-06  68080.5        0.069204743  
    752000   68080.5        6.6607623e-06  68080.5        0.069370523  
    753000   68080.5        6.6784889e-06  68080.5        0.069561384  
    754000   68080.5        6.696239e-06   68080.5        0.069727655  
    755000   68080.5        6.7140127e-06  68080.5        0.069974886  
    756000   68080.5        6.73181e-06    68080.5        0.070160273  
    757000   68080.5        6.7496308e-06  68080.5        0.070240357  
    758000   68080.5        6.7674751e-06  68080.5        0.07050695   
    759000   68080.5        6.785343e-06   68080.5        0.07066203   
    760000   68080.5        6.8032345e-06  68080.5        0.070842191  
    761000   68080.5        6.8211495e-06  68080.5        0.07105985   
    762000   68080.5        6.8390881e-06  68080.5        0.071221875  
    763000   68080.5        6.8570503e-06  68080.5        0.071402772  
    764000   68080.5        6.875036e-06   68080.5        0.071627375  
    765000   68080.5        6.8930452e-06  68080.5        0.071846016  
    766000   68080.5        6.911078e-06   68080.5        0.071971769  
    767000   68080.5        6.9291344e-06  68080.5        0.072184692  
    768000   68080.5        6.9472143e-06  68080.5        0.072348189  
    769000   68080.5        6.9653178e-06  68080.5        0.072542976  
    770000   68080.5        6.9834448e-06  68080.5        0.072731799  
    771000   68080.5        7.0015954e-06  68080.5        0.072927077  
    772000   68080.5        7.0197696e-06  68080.5        0.073159853  
    773000   68080.5        7.0379673e-06  68080.5        0.073380456  
    774000   68080.5        7.0561886e-06  68080.5        0.073533008  
    775000   68080.5        7.0744334e-06  68080.5        0.073685806  
    776000   68080.5        7.0927018e-06  68080.5        0.073894728  
    777000   68080.5        7.1109937e-06  68080.5        0.074110104  
    778000   68080.5        7.1293092e-06  68080.5        0.074269846  
    779000   68080.5        7.1476483e-06  68080.5        0.074454669  
    780000   68080.5        7.1660109e-06  68080.5        0.074683199  
    781000   68080.5        7.184397e-06   68080.5        0.074812634  
    782000   68080.5        7.2028067e-06  68080.5        0.075029237  
    783000   68080.5        7.22124e-06    68080.5        0.075208833  
    784000   68080.5        7.2396969e-06  68080.5        0.075456971  
    785000   68080.5        7.2581773e-06  68080.5        0.075599804  
    786000   68080.5        7.2766812e-06  68080.5        0.075780136  
    787000   68080.5        7.2952087e-06  68080.5        0.076022801  
    788000   68080.5        7.3137598e-06  68080.5        0.076197415  
    789000   68080.5        7.3323344e-06  68080.5        0.076390901  
    790000   68080.5        7.3509326e-06  68080.5        0.076590841  
    791000   68080.5        7.3695543e-06  68080.5        0.076797235  
    792000   68080.5        7.3881996e-06  68080.5        0.076985248  
    793000   68080.5        7.4068684e-06  68080.5        0.077148671  
    794000   68080.5        7.4255609e-06  68080.5        0.07736201   
    795000   68080.5        7.4442768e-06  68080.5        0.07754455   
    796000   68080.5        7.4630163e-06  68080.5        0.077739753  
    797000   68080.5        7.4817794e-06  68080.5        0.077879323  
    798000   68080.5        7.500566e-06   68080.5        0.078137105  
    799000   68080.5        7.5193762e-06  68080.5        0.078270956  
    800000   68080.5        7.53821e-06    68080.5        0.078510603  
    801000   68080.5        7.5570673e-06  68080.5        0.078713242  
    802000   68080.5        7.5759481e-06  68080.5        0.078947171  
    803000   68080.5        7.5948526e-06  68080.5        0.079125465  
    804000   68080.5        7.6137805e-06  68080.5        0.079304005  
    805000   68080.5        7.6327321e-06  68080.5        0.079513835  
    806000   68080.5        7.6517072e-06  68080.5        0.079686656  
    807000   68080.5        7.6707058e-06  68080.5        0.07987835   
    808000   68080.5        7.689728e-06   68080.5        0.080107542  
    809000   68080.5        7.7087738e-06  68080.5        0.0802811    
    810000   68080.5        7.7278431e-06  68080.5        0.08047353   
    811000   68080.5        7.7469359e-06  68080.5        0.080715876  
    812000   68080.5        7.7660524e-06  68080.5        0.080933632  
    813000   68080.5        7.7851924e-06  68080.5        0.081089545  
    814000   68080.5        7.8043559e-06  68080.5        0.081320209  
    815000   68080.5        7.823543e-06   68080.5        0.081489031  
    816000   68080.5        7.8427537e-06  68080.5        0.081670515  
    817000   68080.5        7.8619879e-06  68080.5        0.081858454  
    818000   68080.5        7.8812456e-06  68080.5        0.082059056  
    819000   68080.5        7.900527e-06   68080.5        0.082272321  
    820000   68080.5        7.9198319e-06  68080.5        0.082498248  
    821000   68080.5        7.9391603e-06  68080.5        0.082712004  
    822000   68080.5        7.9585123e-06  68080.5        0.082919796  
    823000   68080.5        7.9778879e-06  68080.5        0.083121625  
    824000   68080.5        7.997287e-06   68080.5        0.083323699  
    825000   68080.5        8.0167096e-06  68080.5        0.083488765  
    826000   68080.5        8.0361559e-06  68080.5        0.083697539  
    827000   68080.5        8.0556256e-06  68080.5        0.083918976  
    828000   68080.5        8.075119e-06   68080.5        0.084159284  
    829000   68080.5        8.0946359e-06  68080.5        0.084300497  
    830000   68080.5        8.1141763e-06  68080.5        0.084504044  
    831000   68080.5        8.1337403e-06  68080.5        0.08473888   
    832000   68080.5        8.1533279e-06  68080.5        0.084911873  
    833000   68080.5        8.172939e-06   68080.5        0.085109946  
    834000   68080.5        8.1925737e-06  68080.5        0.08533931   
    835000   68080.5        8.212232e-06   68080.5        0.085513039  
    836000   68080.5        8.2319138e-06  68080.5        0.085742893  
    837000   68080.5        8.2516191e-06  68080.5        0.085997827  
    838000   68080.5        8.271348e-06   68080.5        0.086147457  
    839000   68080.5        8.2911005e-06  68080.5        0.086402883  
    840000   68080.5        8.3108765e-06  68080.5        0.086664763  
    841000   68080.5        8.3306761e-06  68080.5        0.08680892   
    842000   68080.5        8.3504992e-06  68080.5        0.086990576  
    843000   68080.5        8.3703459e-06  68080.5        0.087166268  
    844000   68080.5        8.3902162e-06  68080.5        0.087385667  
    845000   68080.5        8.41011e-06    68080.5        0.087636356  
    846000   68080.5        8.4300273e-06  68080.5        0.087794158  
    847000   68080.5        8.4499683e-06  68080.5        0.088063964  
    848000   68080.5        8.4699327e-06  68080.5        0.088228466  
    849000   68080.5        8.4899208e-06  68080.5        0.088473927  
    850000   68080.5        8.5099324e-06  68080.5        0.088657546  
    851000   68080.5        8.5299675e-06  68080.5        0.088872455  
    852000   68080.5        8.5500262e-06  68080.5        0.089056564  
    853000   68080.5        8.5701085e-06  68080.5        0.089253337  
    854000   68080.5        8.5902143e-06  68080.5        0.089481399  
    855000   68080.5        8.6103437e-06  68080.5        0.089666245  
    856000   68080.5        8.6304966e-06  68080.5        0.089907215  
    857000   68080.5        8.6506731e-06  68080.5        0.09009876   
    858000   68080.5        8.6708731e-06  68080.5        0.090340222  
    859000   68080.5        8.6910967e-06  68080.5        0.090532258  
    860000   68080.5        8.7113439e-06  68080.5        0.090780418  
    861000   68080.5        8.7316146e-06  68080.5        0.090991572  
    862000   68080.5        8.7519089e-06  68080.5        0.091202971  
    863000   68080.5        8.7722267e-06  68080.5        0.091395988  
    864000   68080.5        8.7925681e-06  68080.5        0.091589251  
    865000   68080.5        8.8129331e-06  68080.5        0.091844848  
    866000   68080.5        8.8333216e-06  68080.5        0.092038602  
    867000   68080.5        8.8537336e-06  68080.5        0.092269854  
    868000   68080.5        8.8741692e-06  68080.5        0.092457889  
    869000   68080.5        8.8946284e-06  68080.5        0.092677215  
    870000   68080.5        8.9151111e-06  68080.5        0.092890576  
    871000   68080.5        8.9356174e-06  68080.5        0.093091766  
    872000   68080.5        8.9561473e-06  68080.5        0.09324353   
    873000   68080.5        8.9767007e-06  68080.5        0.093494881  
    874000   68080.5        8.9972776e-06  68080.5        0.093746477  
    875000   68080.5        9.0178781e-06  68080.5        0.093880351  
    876000   68080.5        9.0385022e-06  68080.5        0.094182109  
    877000   68080.5        9.0591498e-06  68080.5        0.0943351    
    878000   68080.5        9.079821e-06   68080.5        0.094581469  
    879000   68080.5        9.1005158e-06  68080.5        0.094778413  
    880000   68080.5        9.1212341e-06  68080.5        0.094981811  
    881000   68080.5        9.1419759e-06  68080.5        0.095222707  
    882000   68080.5        9.1627413e-06  68080.5        0.095488684  
    883000   68080.5        9.1835303e-06  68080.5        0.095643148  
    884000   68080.5        9.2043428e-06  68080.5        0.095909616  
    885000   68080.5        9.2251789e-06  68080.5        0.096108031  
    886000   68080.5        9.2460386e-06  68080.5        0.096362572  
    887000   68080.5        9.2669218e-06  68080.5        0.096493182  
    888000   68080.5        9.2878285e-06  68080.5        0.096729587  
    889000   68080.5        9.3087588e-06  68080.5        0.096935194  
    890000   68080.5        9.3297127e-06  68080.5        0.097240387  
    891000   68080.5        9.3506901e-06  68080.5        0.097427857  
    892000   68080.5        9.3716911e-06  68080.5        0.097615573  
    893000   68080.5        9.3927156e-06  68080.5        0.097797326  
    894000   68080.5        9.4137637e-06  68080.5        0.098128336  
    895000   68080.5        9.4348354e-06  68080.5        0.098322997  
    896000   68080.5        9.4559306e-06  68080.5        0.098493068  
    897000   68080.5        9.4770494e-06  68080.5        0.098669594  
    898000   68080.5        9.4981917e-06  68080.5        0.098958123  
    899000   68080.5        9.5193576e-06  68080.5        0.099228272  
    900000   68080.5        9.540547e-06   68080.5        0.099343445  
    901000   68080.5        9.56176e-06    68080.5        0.09963892   
    902000   68080.5        9.5829965e-06  68080.5        0.099866342  
    903000   68080.5        9.6042567e-06  68080.5        0.10006297   
    904000   68080.5        9.6255403e-06  68080.5        0.10024121   
    905000   68080.5        9.6468475e-06  68080.5        0.10046316   
    906000   68080.5        9.6681783e-06  68080.5        0.10069777   
    907000   68080.5        9.6895327e-06  68080.5        0.10091401   
    908000   68080.5        9.7109105e-06  68080.5        0.10111186   
    909000   68080.5        9.732312e-06   68080.5        0.10140929   
    910000   68080.5        9.753737e-06   68080.5        0.10163247   
    911000   68080.5        9.7751856e-06  68080.5        0.10183106   
    912000   68080.5        9.7966577e-06  68080.5        0.1020361    
    913000   68080.5        9.8181534e-06  68080.5        0.10227864   
    914000   68080.5        9.8396726e-06  68080.5        0.1025028    
    915000   68080.5        9.8612154e-06  68080.5        0.10275204   
    916000   68080.5        9.8827817e-06  68080.5        0.10290839   
    917000   68080.5        9.9043716e-06  68080.5        0.10313329   
    918000   68080.5        9.9259851e-06  68080.5        0.10338947   
    919000   68080.5        9.9476221e-06  68080.5        0.10367694   
    920000   68080.5        9.9692827e-06  68080.5        0.10384049   
    921000   68080.5        9.9909668e-06  68080.5        0.10405394   
    922000   68080.5        1.0012675e-05  68080.5        0.10429869   
    923000   68080.5        1.0034406e-05  68080.5        0.10454369   
    924000   68080.5        1.0056161e-05  68080.5        0.10475167   
    925000   68080.5        1.0077939e-05  68080.5        0.10497853   
    926000   68080.5        1.0099741e-05  68080.5        0.10520563   
    927000   68080.5        1.0121566e-05  68080.5        0.10542677   
    928000   68080.5        1.0143415e-05  68080.5        0.10567299   
    929000   68080.5        1.0165288e-05  68080.5        0.10591946   
    930000   68080.5        1.0187184e-05  68080.5        0.10609787   
    931000   68080.5        1.0209104e-05  68080.5        0.10636967   
    932000   68080.5        1.0231047e-05  68080.5        0.10661687   
    933000   68080.5        1.0253014e-05  68080.5        0.10675877   
    934000   68080.5        1.0275004e-05  68080.5        0.10697541   
    935000   68080.5        1.0297018e-05  68080.5        0.10729786   
    936000   68080.5        1.0319056e-05  68080.5        0.10749637   
    937000   68080.5        1.0341117e-05  68080.5        0.10768271   
    938000   68080.5        1.0363201e-05  68080.5        0.10792518   
    939000   68080.5        1.0385309e-05  68080.5        0.10816168   
    940000   68080.5        1.0407441e-05  68080.5        0.10837359   
    941000   68080.5        1.0429596e-05  68080.5        0.10865405   
    942000   68080.5        1.0451775e-05  68080.5        0.10884782   
    943000   68080.5        1.0473978e-05  68080.5        0.10911635   
    944000   68080.5        1.0496204e-05  68080.5        0.10930441   
    945000   68080.5        1.0518453e-05  68080.5        0.10957964   
    946000   68080.5        1.0540726e-05  68080.5        0.10979302   
    947000   68080.5        1.0563023e-05  68080.5        0.11006874   
    948000   68080.5        1.0585343e-05  68080.5        0.11027641   
    949000   68080.5        1.0607687e-05  68080.5        0.11046569   
    950000   68080.5        1.0630054e-05  68080.5        0.11074215   
    951000   68080.5        1.0652445e-05  68080.5        0.11093192   
    952000   68080.5        1.0674859e-05  68080.5        0.11118403   
    953000   68080.5        1.0697297e-05  68080.5        0.11143018   
    954000   68080.5        1.0719759e-05  68080.5        0.11170141   
    955000   68080.5        1.0742244e-05  68080.5        0.11191079   
    956000   68080.5        1.0764752e-05  68080.5        0.11215146   
    957000   68080.5        1.0787284e-05  68080.5        0.11236755   
    958000   68080.5        1.080984e-05   68080.5        0.11262734   
    959000   68080.5        1.083242e-05   68080.5        0.11282529   
    960000   68080.5        1.0855022e-05  68080.5        0.1131104    
    961000   68080.5        1.0877649e-05  68080.5        0.11327159   
    962000   68080.5        1.0900299e-05  68080.5        0.11345786   
    963000   68080.5        1.0922972e-05  68080.5        0.11376854   
    964000   68080.5        1.0945669e-05  68080.5        0.11399255   
    965000   68080.5        1.096839e-05   68080.5        0.11427269   
    966000   68080.5        1.0991134e-05  68080.5        0.11447856   
    967000   68080.5        1.1013902e-05  68080.5        0.11474677   
    968000   68080.5        1.1036693e-05  68080.5        0.11498418   
    969000   68080.5        1.1059508e-05  68080.5        0.11522804   
    970000   68080.5        1.1082347e-05  68080.5        0.11547836   
    971000   68080.5        1.1105208e-05  68080.5        0.11569167   
    972000   68080.5        1.1128094e-05  68080.5        0.11590523   
    973000   68080.5        1.1151003e-05  68080.5        0.11617491   
    974000   68080.5        1.1173936e-05  68080.5        0.11638275   
    975000   68080.5        1.1196892e-05  68080.5        0.11666534   
    976000   68080.5        1.1219872e-05  68080.5        0.11684883   
    977000   68080.5        1.1242875e-05  68080.5        0.11707603   
    978000   68080.5        1.1265902e-05  68080.5        0.11735935   
    979000   68080.5        1.1288952e-05  68080.5        0.11759325   
    980000   68080.5        1.1312026e-05  68080.5        0.11784603   
    981000   68080.5        1.1335124e-05  68080.5        0.11807421   
    982000   68080.5        1.1358245e-05  68080.5        0.11832126   
    983000   68080.5        1.138139e-05   68080.5        0.11853131   
    984000   68080.5        1.1404558e-05  68080.5        0.11882852   
    985000   68080.5        1.142775e-05   68080.5        0.11901422   
    986000   68080.5        1.1450965e-05  68080.5        0.11928089   
    987000   68080.5        1.1474204e-05  68080.5        0.11953537   
    988000   68080.5        1.1497466e-05  68080.5        0.1197839    
    989000   68080.5        1.1520752e-05  68080.5        0.12004509   
    990000   68080.5        1.1544062e-05  68080.5        0.12022581   
    991000   68080.5        1.1567395e-05  68080.5        0.12051232   
    992000   68080.5        1.1590752e-05  68080.5        0.12068112   
    993000   68080.5        1.1614132e-05  68080.5        0.1209495    
    994000   68080.5        1.1637536e-05  68080.5        0.12124917   
    995000   68080.5        1.1660963e-05  68080.5        0.12145595   
    996000   68080.5        1.1684414e-05  68080.5        0.12173127   
    997000   68080.5        1.1707888e-05  68080.5        0.12195717   
    998000   68080.5        1.1731386e-05  68080.5        0.12219573   
    999000   68080.5        1.1754908e-05  68080.5        0.122478     
   1000000   68080.5        1.1778453e-05  68080.5        0.12266118   
   1001000   68080.5        1.1802022e-05  68080.5        0.12294394   
   1002000   68080.5        1.1825614e-05  68080.5        0.1231959    
   1003000   68080.5        1.184923e-05   68080.5        0.12339222   
   1004000   68080.5        1.1872869e-05  68080.5        0.12370056   
   1005000   68080.5        1.1896532e-05  68080.5        0.12392842   
   1006000   68080.5        1.1920219e-05  68080.5        0.12413169   
   1007000   68080.5        1.1943929e-05  68080.5        0.12440971   
   1008000   68080.5        1.1967662e-05  68080.5        0.12463831   
   1009000   68080.5        1.1991419e-05  68080.5        0.12492304   
   1010000   68080.5        1.20152e-05    68080.5        0.12515833   
   1011000   68080.5        1.2039004e-05  68080.5        0.12539388   
   1012000   68080.5        1.2062832e-05  68080.5        0.12561725   
   1013000   68080.5        1.2086683e-05  68080.5        0.12589674   
   1014000   68080.5        1.2110558e-05  68080.5        0.12616407   
   1015000   68080.5        1.2134457e-05  68080.5        0.12644405   
   1016000   68080.5        1.2158379e-05  68080.5        0.12666841   
   1017000   68080.5        1.2182324e-05  68080.5        0.12688059   
   1018000   68080.5        1.2206294e-05  68080.5        0.12709922   
   1019000   68080.5        1.2230286e-05  68080.5        0.12746711   
   1020000   68080.5        1.2254303e-05  68080.5        0.12768624   
   1021000   68080.5        1.2278342e-05  68080.5        0.12790561   
   1022000   68080.5        1.2302406e-05  68080.5        0.12815006   
[...]
   4540000   68080.5        0.00024277496  68080.5        2.5288872    
   4541000   68080.5        0.00024288168  68080.5        2.5299989    
   4542000   68080.5        0.00024298845  68080.5        2.5311235    
   4543000   68080.5        0.00024309528  68080.5        2.5321929    
   4544000   68080.5        0.00024320217  68080.5        2.5333745    
   4545000   68080.5        0.0002433091   68080.5        2.5345133    
   4546000   68080.5        0.00024341608  68080.5        2.5355904    
   4547000   68080.5        0.00024352311  68080.5        2.5366929    
   4548000   68080.5        0.00024363019  68080.5        2.5378083    
   4549000   68080.5        0.00024373731  68080.5        2.5389924    
   4550000   68080.5        0.00024384447  68080.5        2.5400527    
   4551000   68080.5        0.00024395166  68080.5        2.5411507    
   4552000   68080.5        0.00024405888  68080.5        2.5422924    
   4553000   68080.5        0.00024416612  68080.5        2.5433971    
   4554000   68080.5        0.00024427339  68080.5        2.5445827    
   4555000   68080.5        0.00024438068  68080.5        2.5456383    
   4556000   68080.5        0.00024448799  68080.5        2.5467251    
   4557000   68080.5        0.00024459533  68080.5        2.547868     
   4558000   68080.5        0.00024470269  68080.5        2.5489677    
   4559000   68080.5        0.00024481007  68080.5        2.5501111    
   4560000   68080.5        0.00024491748  68080.5        2.5512051    
   4561000   68080.5        0.00024502491  68080.5        2.5523056    
   4562000   68080.5        0.00024513237  68080.5        2.5534994    
   4563000   68080.5        0.00024523985  68080.5        2.5546003    
   4564000   68080.5        0.00024534735  68080.5        2.5556891    
   4565000   68080.5        0.00024545487  68080.5        2.5567968    
   4566000   68080.5        0.00024556242  68080.5        2.558004     
   4567000   68080.5        0.00024567     68080.5        2.5590562    
   4568000   68080.5        0.00024577759  68080.5        2.5602267    
   4569000   68080.5        0.00024588521  68080.5        2.5612919    
   4570000   68080.5        0.00024599286  68080.5        2.5624629    
   4571000   68080.5        0.00024610054  68080.5        2.5635535    
   4572000   68080.5        0.00024620825  68080.5        2.5646693    
   4573000   68080.5        0.00024631601  68080.5        2.5657918    
   4574000   68080.5        0.00024642381  68080.5        2.5668837    
   4575000   68080.5        0.00024653166  68080.5        2.5680444    
   4576000   68080.5        0.00024663956  68080.5        2.5691497    
   4577000   68080.5        0.00024674751  68080.5        2.5702804    
   4578000   68080.5        0.00024685551  68080.5        2.5713806    
   4579000   68080.5        0.00024696357  68080.5        2.5725186    
   4580000   68080.5        0.00024707169  68080.5        2.5736758    
   4581000   68080.5        0.00024717986  68080.5        2.5748151    
   4582000   68080.5        0.0002472881   68080.5        2.5759115    
   4583000   68080.5        0.00024739639  68080.5        2.5770582    
   4584000   68080.5        0.00024750475  68080.5        2.5781807    
   4585000   68080.5        0.00024761317  68080.5        2.5793287    
   4586000   68080.5        0.00024772166  68080.5        2.5804402    
   4587000   68080.5        0.00024783022  68080.5        2.5815586    
   4588000   68080.5        0.00024793884  68080.5        2.5827273    
   4589000   68080.5        0.00024804754  68080.5        2.5838534    
   4590000   68080.5        0.00024815631  68080.5        2.5849429    
   4591000   68080.5        0.00024826515  68080.5        2.5861077    
   4592000   68080.5        0.00024837406  68080.5        2.5872049    
   4593000   68080.5        0.00024848304  68080.5        2.5883154    
   4594000   68080.5        0.00024859211  68080.5        2.5895197    
   4595000   68080.5        0.00024870125  68080.5        2.5905883    
   4596000   68080.5        0.00024881047  68080.5        2.5917571    
   4597000   68080.5        0.00024891976  68080.5        2.5929515    
   4598000   68080.5        0.00024902914  68080.5        2.594066     
   4599000   68080.5        0.0002491386   68080.5        2.5952       
   4600000   68080.5        0.00024924814  68080.5        2.5963162    
   4601000   68080.5        0.00024935777  68080.5        2.597483     
   4602000   68080.5        0.00024946748  68080.5        2.598663     
   4603000   68080.5        0.00024957727  68080.5        2.5997695    
   4604000   68080.5        0.00024968715  68080.5        2.6009265    
   4605000   68080.5        0.00024979607  68080.5        2.602061     
   4606000   68080.5        0.00024990311  68080.5        2.6031512    
   4607000   68080.5        0.00025001024  68080.5        2.6042671    
   4608000   68080.5        0.00025011745  68080.5        2.6053591    
   4609000   68080.5        0.00025022475  68080.5        2.6065078    
   4610000   68080.5        0.00025033213  68080.5        2.6075705    
   4611000   68080.5        0.00025043959  68080.5        2.6087458    
   4612000   68080.5        0.00025054714  68080.5        2.6098598    
   4613000   68080.5        0.00025065476  68080.5        2.610956     
   4614000   68080.5        0.00025076246  68080.5        2.6121152    
   4615000   68080.5        0.00025087024  68080.5        2.6132503    
   4616000   68080.5        0.0002509781   68080.5        2.6143242    
   4617000   68080.5        0.00025108603  68080.5        2.6154609    
   4618000   68080.5        0.00025119404  68080.5        2.616617     
   4619000   68080.5        0.00025130212  68080.5        2.6177739    
   4620000   68080.5        0.00025141028  68080.5        2.6188446    
   4621000   68080.5        0.0002515185   68080.5        2.6199968    
   4622000   68080.5        0.0002516268   68080.5        2.6210939    
   4623000   68080.5        0.00025173517  68080.5        2.6222537    
   4624000   68080.5        0.0002518436   68080.5        2.6234019    
   4625000   68080.5        0.0002519521   68080.5        2.6244762    
   4626000   68080.5        0.00025206067  68080.5        2.6256382    
   4627000   68080.5        0.0002521693   68080.5        2.6267449    
   4628000   68080.5        0.00025227799  68080.5        2.6278895    
   4629000   68080.5        0.00025238674  68080.5        2.6290658    
   4630000   68080.5        0.00025249556  68080.5        2.6302117    
   4631000   68080.5        0.00025260443  68080.5        2.6313085    
   4632000   68080.5        0.00025271335  68080.5        2.6324059    
   4633000   68080.5        0.00025282233  68080.5        2.633597     
   4634000   68080.5        0.00025293137  68080.5        2.6347328    
   4635000   68080.5        0.00025304045  68080.5        2.6358132    
   4636000   68080.5        0.00025314958  68080.5        2.6369872    
   4637000   68080.5        0.00025325875  68080.5        2.638081     
   4638000   68080.5        0.00025336797  68080.5        2.6392497    
   4639000   68080.5        0.00025347723  68080.5        2.640394     
   4640000   68080.5        0.00025358652  68080.5        2.6415573    
   4641000   68080.5        0.00025369583  68080.5        2.6426711    
   4642000   68080.5        0.00025380517  68080.5        2.6438411    
   4643000   68080.5        0.00025391454  68080.5        2.644912     
   4644000   68080.5        0.00025402392  68080.5        2.646095     
   4645000   68080.5        0.00025413333  68080.5        2.6472284    
   4646000   68080.5        0.00025424277  68080.5        2.6483932    
   4647000   68080.5        0.00025435223  68080.5        2.6495272    
   4648000   68080.5        0.00025446171  68080.5        2.6506117    
   4649000   68080.5        0.00025457121  68080.5        2.6518083    
   4650000   68080.5        0.00025468074  68080.5        2.6529492    
   4651000   68080.5        0.00025479029  68080.5        2.6540593    
   4652000   68080.5        0.00025489987  68080.5        2.6552628    
   4653000   68080.5        0.00025500946  68080.5        2.6563921    
   4654000   68080.5        0.00025511909  68080.5        2.6574843    
   4655000   68080.5        0.00025522873  68080.5        2.6586264    
   4656000   68080.5        0.0002553384   68080.5        2.6597812    
   4657000   68080.5        0.0002554481   68080.5        2.6609052    
   4658000   68080.5        0.00025555781  68080.5        2.6620357    
   4659000   68080.5        0.00025566756  68080.5        2.6631975    
   4660000   68080.5        0.00025577734  68080.5        2.6643598    
   4661000   68080.5        0.00025588717  68080.5        2.66551      
   4662000   68080.5        0.00025599704  68080.5        2.6666483    
   4663000   68080.5        0.00025610696  68080.5        2.6678367    
   4664000   68080.5        0.00025621692  68080.5        2.6689201    
   4665000   68080.5        0.00025632694  68080.5        2.6700537    
   4666000   68080.5        0.00025643702  68080.5        2.67125      
   4667000   68080.5        0.00025654714  68080.5        2.6723785    
   4668000   68080.5        0.00025665733  68080.5        2.6735014    
   4669000   68080.5        0.00025676758  68080.5        2.6746312    
   4670000   68080.5        0.00025687788  68080.5        2.675743     
   4671000   68080.5        0.00025698825  68080.5        2.6769858    
   4672000   68080.5        0.00025709869  68080.5        2.6781486    
   4673000   68080.5        0.00025720919  68080.5        2.6792375    
   4674000   68080.5        0.00025731975  68080.5        2.6803831    
   4675000   68080.5        0.00025743039  68080.5        2.6815355    
   4676000   68080.5        0.0002575411   68080.5        2.6827074    
   4677000   68080.5        0.00025765188  68080.5        2.6839048    
   4678000   68080.5        0.00025776273  68080.5        2.6850098    
   4679000   68080.5        0.00025787366  68080.5        2.6861963    
   4680000   68080.5        0.00025798466  68080.5        2.6873526    
   4681000   68080.5        0.00025809574  68080.5        2.6884972    
   4682000   68080.5        0.00025820689  68080.5        2.6896551    
   4683000   68080.5        0.00025831813  68080.5        2.6908076    
   4684000   68080.5        0.00025842944  68080.5        2.6919672    
   4685000   68080.5        0.00025854084  68080.5        2.6931462    
   4686000   68080.5        0.00025865232  68080.5        2.6943199    
   4687000   68080.5        0.00025876389  68080.5        2.6954758    
   4688000   68080.5        0.00025887554  68080.5        2.6965829    
   4689000   68080.5        0.00025898727  68080.5        2.697753     
   4690000   68080.5        0.00025909909  68080.5        2.6989675    
   4691000   68080.5        0.000259211    68080.5        2.7001146    
   4692000   68080.5        0.000259323    68080.5        2.7012564    
   4693000   68080.5        0.00025943315  68080.5        2.7024534    
   4694000   68080.5        0.00025954225  68080.5        2.7035651    
   4695000   68080.5        0.00025965145  68080.5        2.7046902    
   4696000   68080.5        0.00025976073  68080.5        2.7057975    
   4697000   68080.5        0.0002598701   68080.5        2.707005     
   4698000   68080.5        0.00025997955  68080.5        2.7081079    
   4699000   68080.5        0.00026008909  68080.5        2.7092489    
   4700000   68080.5        0.00026019871  68080.5        2.7104032    
   4701000   68080.5        0.00026030841  68080.5        2.7115211    
   4702000   68080.5        0.00026041819  68080.5        2.7127019    
   4703000   68080.5        0.00026052805  68080.5        2.7138711    
   4704000   68080.5        0.00026063799  68080.5        2.7149729    
   4705000   68080.5        0.00026074801  68080.5        2.7161003    
   4706000   68080.5        0.00026085811  68080.5        2.7172906    
   4707000   68080.5        0.00026096827  68080.5        2.7184071    
   4708000   68080.5        0.00026107852  68080.5        2.7195431    
   4709000   68080.5        0.00026118883  68080.5        2.7207357    
   4710000   68080.5        0.00026129922  68080.5        2.7218793    
   4711000   68080.5        0.00026140968  68080.5        2.7229927    
   4712000   68080.5        0.00026152021  68080.5        2.7241874    
   4713000   68080.5        0.0002616308   68080.5        2.7253395    
   4714000   68080.5        0.00026174146  68080.5        2.7264673    
   4715000   68080.5        0.00026185218  68080.5        2.7276269    
   4716000   68080.5        0.00026196297  68080.5        2.7287872    
   4717000   68080.5        0.00026207382  68080.5        2.7299542    
   4718000   68080.5        0.00026218473  68080.5        2.7310474    
   4719000   68080.5        0.00026229569  68080.5        2.7322344    
   4720000   68080.5        0.00026240671  68080.5        2.7333971    
   4721000   68080.5        0.00026251779  68080.5        2.7345603    
   4722000   68080.5        0.00026262891  68080.5        2.7356868    
   4723000   68080.5        0.00026274009  68080.5        2.7368635    
   4724000   68080.5        0.00026285131  68080.5        2.7380345    
   4725000   68080.5        0.00026296257  68080.5        2.7391811    
   4726000   68080.5        0.00026307388  68080.5        2.7403591    
   4727000   68080.5        0.00026318522  68080.5        2.7415065    
   4728000   68080.5        0.00026329658  68080.5        2.74271      
   4729000   68080.5        0.00026340797  68080.5        2.7438641    
   4730000   68080.5        0.00026351939  68080.5        2.7449874    
   4731000   68080.5        0.00026363082  68080.5        2.7461544    
   4732000   68080.5        0.00026374228  68080.5        2.7472658    
   4733000   68080.5        0.00026385376  68080.5        2.7485015    
   4734000   68080.5        0.00026396527  68080.5        2.7495637    
   4735000   68080.5        0.0002640768   68080.5        2.7507752    
   4736000   68080.5        0.00026418836  68080.5        2.7519248    
   4737000   68080.5        0.00026429993  68080.5        2.7531491    
   4738000   68080.5        0.00026441153  68080.5        2.7542744    
   4739000   68080.5        0.00026452316  68080.5        2.7554496    
   4740000   68080.5        0.00026463481  68080.5        2.7566312    
   4741000   68080.5        0.00026474648  68080.5        2.7577882    
   4742000   68080.5        0.00026485817  68080.5        2.7589766    
   4743000   68080.5        0.00026496989  68080.5        2.7601093    
   4744000   68080.5        0.00026508164  68080.5        2.7612981    
   4745000   68080.5        0.0002651934   68080.5        2.7624623    
   4746000   68080.5        0.00026530519  68080.5        2.7636392    
   4747000   68080.5        0.000265417    68080.5        2.7647294    
   4748000   68080.5        0.00026552884  68080.5        2.7659192    
   4749000   68080.5        0.0002656407   68080.5        2.7670844    
   4750000   68080.5        0.00026575259  68080.5        2.7682437    
   4751000   68080.5        0.00026586449  68080.5        2.7693721    
   4752000   68080.5        0.00026597642  68080.5        2.770656     
   4753000   68080.5        0.00026608838  68080.5        2.7717539    
   4754000   68080.5        0.00026620036  68080.5        2.7729452    
   4755000   68080.5        0.00026631236  68080.5        2.7740746    
   4756000   68080.5        0.00026642438  68080.5        2.7752478    
   4757000   68080.5        0.00026653643  68080.5        2.7764025    
   4758000   68080.5        0.0002666485   68080.5        2.7775762    
   4759000   68080.5        0.0002667606   68080.5        2.7787438    
   4760000   68080.5        0.00026687272  68080.5        2.7798869    
   4761000   68080.5        0.00026698486  68080.5        2.7811109    
   4762000   68080.5        0.00026709703  68080.5        2.7822297    
   4763000   68080.5        0.00026720922  68080.5        2.7834169    
   4764000   68080.5        0.00026732143  68080.5        2.7846355    
   4765000   68080.5        0.00026743367  68080.5        2.7857301    
   4766000   68080.5        0.00026754593  68080.5        2.7869119    
   4767000   68080.5        0.00026765821  68080.5        2.7881126    
   4768000   68080.5        0.00026777052  68080.5        2.7892452    
   4769000   68080.5        0.00026788285  68080.5        2.7904091    
   4770000   68080.5        0.00026799521  68080.5        2.7916602    
   4771000   68080.5        0.00026810759  68080.5        2.7927563    
   4772000   68080.5        0.00026821999  68080.5        2.7939582    
   4773000   68080.5        0.00026833241  68080.5        2.7950859    
   4774000   68080.5        0.00026844486  68080.5        2.7962882    
   4775000   68080.5        0.00026855734  68080.5        2.7974474    
   4776000   68080.5        0.00026866983  68080.5        2.7986627    
   4777000   68080.5        0.00026878235  68080.5        2.79981      
   4778000   68080.5        0.0002688949   68080.5        2.8009823    
   4779000   68080.5        0.00026900746  68080.5        2.802099     
   4780000   68080.5        0.00026912005  68080.5        2.8033277    
   4781000   68080.5        0.00026923267  68080.5        2.8044449    
   4782000   68080.5        0.0002693453   68080.5        2.8057423    
   4783000   68080.5        0.00026945797  68080.5        2.8068228    
   4784000   68080.5        0.00026957065  68080.5        2.8080524    
   4785000   68080.5        0.00026968336  68080.5        2.8092389    
   4786000   68080.5        0.00026979609  68080.5        2.8103635    
   4787000   68080.5        0.00026990885  68080.5        2.8115194    
   4788000   68080.5        0.00027002162  68080.5        2.8127315    
   4789000   68080.5        0.00027013443  68080.5        2.8139189    
   4790000   68080.5        0.00027024725  68080.5        2.8150507    
   4791000   68080.5        0.0002703601   68080.5        2.8163007    
   4792000   68080.5        0.00027047298  68080.5        2.8174827    
   4793000   68080.5        0.00027058587  68080.5        2.8186215    
   4794000   68080.5        0.00027069879  68080.5        2.8197418    
   4795000   68080.5        0.00027081174  68080.5        2.8209245    
   4796000   68080.5        0.0002709247   68080.5        2.8221137    
   4797000   68080.5        0.0002710377   68080.5        2.8233031    
   4798000   68080.5        0.00027115071  68080.5        2.8244741    
   4799000   68080.5        0.00027126375  68080.5        2.8256702    
   4800000   68080.5        0.00027137681  68080.5        2.8268045    
Loop time of 15.503 on 4 procs for 4800000 steps with 11 atoms

89.9% CPU use with 1 MPI tasks x 4 OpenMP threads

MPI task timing breakdown:
Section |  min time  |  avg time  |  max time  |%varavg| %total
---------------------------------------------------------------
Pair    | 4.3383     | 4.3383     | 4.3383     |   0.0 | 27.98
Bond    | 3.6626     | 3.6626     | 3.6626     |   0.0 | 23.63
Neigh   | 9e-06      | 9e-06      | 9e-06      |   0.0 |  0.00
Comm    | 0.47449    | 0.47449    | 0.47449    |   0.0 |  3.06
Output  | 1.7313     | 1.7313     | 1.7313     |   0.0 | 11.17
Modify  | 3.5313     | 3.5313     | 3.5313     |   0.0 | 22.78
Other   |            | 1.765      |            |       | 11.39

Nlocal:             11 ave          11 max          11 min
Histogram: 1 0 0 0 0 0 0 0 0 0
Nghost:              0 ave           0 max           0 min
Histogram: 1 0 0 0 0 0 0 0 0 0
Neighs:             45 ave          45 max          45 min
Histogram: 1 0 0 0 0 0 0 0 0 0

Total # of neighbors = 45
Ave neighs/atom = 4.0909091
Ave special neighs/atom = 1.8181818
Neighbor list builds = 1
Dangerous builds = 0
Total wall time: 0:00:15
