LAMMPS (22 Jul 2025 - Update 1)
  using 4 OpenMP thread(s) per MPI task
Loaded 1 plugins from C:\Users\Palash\AppData\Local\LAMMPS 64-bit 22Jul2025-MSMPI with Python\plugins
# Flexible granular chain simulation in LAMMPS

units       si
atom_style hybrid sphere angle
WARNING: Atom style hybrid defines both, per-type and per-atom masses; both must be set, but only per-atom masses will be used (src/atom_vec_hybrid.cpp:132)
boundary    f f f

# special_bonds none

# Read the atom and bond data from the data file.
# read_data chain_datas/chain.data
read_data chain_datas/N4_chain.data
Reading data file ...
  orthogonal box = (-0.05 -0.05 0) to (0.05 0.05 0.1)
  1 by 1 by 1 MPI processor grid
WARNING: Atom style in data file hybrid sphere angle differs from currently defined atom style hybrid (src/read_data.cpp:727)
  reading atoms ...
  4 atoms
  scanning bonds ...
  1 = max bonds/atom
  scanning angles ...
  1 = max angles/atom
  orthogonal box = (-0.05 -0.05 0) to (0.05 0.05 0.1)
  1 by 1 by 1 MPI processor grid
  reading bonds ...
  3 bonds
  reading angles ...
  2 angles
Finding 1-2 1-3 1-4 neighbors ...
  special bond factors lj:    0        0        0       
  special bond factors coul:  0        0        0       
     2 = max # of 1-2 neighbors
     1 = max # of 1-3 neighbors
     2 = max # of 1-4 neighbors
     3 = max # of special neighbors
  special bonds CPU = 0.001 seconds
  read_data CPU = 0.005 seconds
# read_data chain_datas/N4_chain.data

# Ensure spherical properties are consistent (overrides data if needed)
# mm
# set type 1 diameter 0.002
# kg/m3
# set type 1 density 708.47
velocity all set 0.0 0.0 0.0

# Pin the first three beads in space (anchor group) and integrate only the rest
group anchors id 1 2
2 atoms in group anchors
group mobile subtract all anchors
2 atoms in group mobile

velocity anchors set 0.0 0.0 0.0
set group anchors omega 0.0 0.0 0.0
Setting atom values ...
  2 settings made for omega

# Optional: create a unique output directory per run (portable on Windows PowerShell)
# shell powershell -NoProfile -Command "if (!(Test-Path 'post')) {New-Item -ItemType Directory -Path 'post' ^| Out-Null}; $counterPath = 'post/run_counter.txt'; if (!(Test-Path $counterPath)) {Set-Content -Path $counterPath -Value '0'}; $count = [int](Get-Content -Path $counterPath); $next = $count + 1; Set-Content -Path $counterPath -Value $next; $outdir = Join-Path 'post' ('run_{0:D4}' -f $next); New-Item -ItemType Directory -Path $outdir -Force ^| Out-Null; $forward = $outdir -replace '\\','/'; Set-Content -Path 'post/current_run.txt' -Value $forward; Set-Content -Path 'post/current_run.lmp' -Value ('variable outdir string ' + $forward);"
# include post/current_run.lmp

# Ensure a predictable output directory and set outdir
shell if not exist post_chain_flop mkdir post_chain_flop
shell if not exist post_chain_flop\current mkdir post_chain_flop\current
# clear dir if it exist
shell del /Q post_chain_flop\current\*
variable outdir string post_chain_flop/current

variable r_max equal 0.003 #center to center
# Theta limit in Radians (140 degrees * PI / 180)
variable theta_lim equal 2.44346
# Stiffnesses
variable knt2   equal 1.0e5  # High stiffness for bond limit
variable ktheta equal 1.0e5   # Stiffness for angle limit
# smoothing widths (tune as needed)
variable w   equal 1.0e-5    # smoothing length (m)
variable delta equal 0.05    # smoothing angle (rad) ~ 1.15 deg
# Granular pair style parameters
# normal contact
variable k_n equal 1e6 # Normal stiffness
variable nu_n0 equal 50.0 # damping prefactor or a coefficient of restitution
# rolling
variable k_roll equal 1.0e6   # Rolling Friction Stiffness
variable gamma_roll equal 5000 # Rolling Friction Damping
variable mu_roll equal 0.3 # Rolling Friction Coefficient
# tangential
variable k_t equal 1.0e6   # Tangential stiffness coefficient.
variable x_gamma_t equal 1.0 # dimensionless multiplier for the normal damping
variable mu_s equal 0.3 # is the tangential (or sliding) friction coefficient


# Apply gravity perpendicular to the chain (chain aligned with +z, gravity along +x)
fix grav mobile gravity 9.81 vector 1 0 0
# --- WALL DEFINITIONS ---
# You must define X, Y, and Z walls separately.

# 1. X-Walls (Left and Right: -0.02 to 0.02)
fix xwalls all wall/gran granular hertz/material 1.0e8 0.3 5e-4     tangential linear_history 300.0 1.0 0.1     rolling sds 200.0 100.0 0.1     twisting marshall     xplane -0.02 0.02

# 2. Y-Walls (Front and Back: -0.01 to 0.01)
fix ywalls all wall/gran granular hertz/material 1.0e8 0.3 5e-4     tangential linear_history 300.0 1.0 0.1     rolling sds 200.0 100.0 0.1     twisting marshall     yplane -0.01 0.01

# 3. Z-Walls (Floor and Ceiling: 0.00 to 0.08)
fix zwalls all wall/gran granular hertz/material 1.0e8 0.3 5e-4     tangential linear_history 300.0 1.0 0.1     rolling sds 200.0 100.0 0.1     twisting marshall     zplane 0.00 0.08

#
comm_modify vel yes cutoff 0.004

# define particle - particle interactions
pair_style  granular
# k_n, nu_n0 # k_t, x_(gamma,t), mu_s # k_roll, gamma_roll, mu_roll
pair_coeff  1 1 hooke 1e6 50.0             tangential linear_history 1.0e6 1.0 0.3             rolling sds 1.0e6 5000 0.3             twisting marshall

# BOND: Lepton
# If r > r_max (0.003): Apply harmonic penalty k/2 * (r - r_max)^2
# If r <= r_max: Force is 0 (slack chain)
# Note: Repulsion for r < 0.002 is handled by pair_style granular, not this bond.
bond_style lepton no_offset
# bond_coeff 1 1.0 "0.5 * knt2 * (r - r_max)^2 * step(r - r_max); knt2=v_knt2; r_max=v_r_max"
bond_coeff 1 0.003 "0.5 * knt2 * (r - r_max)^2 * 0.5 * (1 + tanh((r - r_max)/w)); knt2=v_knt2; r_max=v_r_max; w=v_w"

# ANGLE: Lepton
# theta variable is in Radians.
# If theta < theta_lim: Apply harmonic penalty k/2 * (theta - theta_lim)^2
# If theta >= theta_lim: Force is 0 (free bending)
angle_style lepton no_offset
# angle_coeff 1 1.0 "0.5 * ktheta * (theta - t_lim)^2 * step(t_lim - theta); ktheta=v_ktheta; t_lim=v_theta_lim"
angle_coeff 1 0 "0.5 * ktheta * (theta - t_lim)^2 * 0.5 * (1 + tanh((t_lim - theta)/w_a)); ktheta=v_ktheta; t_lim=v_theta_lim; w_a=v_delta"

# Use the standard NVE integrator for the mobile beads only.
fix integr mobile nve/sphere

# Set up neighbor list parameters (wider skin and higher per-atom quota prevent overflow)
neighbor 0.004 bin # skin_width type
neigh_modify delay 0 every 1 check yes

# Set a conservative timestep for the stiff bonded chain.
timestep 1.0e-6

# === 4. OUTPUTS & RUN ===
# Output thermodynamic data every 10000 timesteps.
thermo 1000
thermo_style custom step pe ke ebond eangle etotal ecoul emol edihed epair evdwl

# Output a dump file of the sphere coordinates for visualization (e.g., in ParaView)
dump 1 all custom 1000 ${outdir}/chain_*.dump id type x y z vx vy vz fx fy fz diameter mass
dump 1 all custom 1000 post_chain_flop/current/chain_*.dump id type x y z vx vy vz fx fy fz diameter mass
dump_modify 1 sort id

# Save a binary restart file every 1,000,000 steps
# The '*' is replaced by the timestep number
restart 100000 ${outdir}/restart.*.bin
restart 100000 post_chain_flop/current/restart.*.bin

run 10000000  # 1e7 timesteps 1 second
Generated 0 of 0 mixed pair_coeff terms from geometric mixing rule
WARNING: Communication cutoff 0.006 is shorter than a bond length based estimate of 0.0085. This may lead to errors. (src/comm.cpp:743)
Neighbor list info ...
  update: every = 1 steps, delay = 0 steps, check = yes
  max neighbors/atom: 2000, page size: 100000
  master list distance cutoff = 0.006
  ghost atom cutoff = 0.006
  binsize = 0.003, bins = 34 34 34
  1 neighbor lists, perpetual/occasional/extra = 1 0 0
  (1) pair granular, perpetual
      attributes: half, newton on, size, history
      pair build: half/size/bin/newton
      stencil: half/bin/3d
      bin: standard
WARNING: Communication cutoff 0.006 is shorter than a bond length based estimate of 0.0085. This may lead to errors. (src/comm.cpp:743)
WARNING: Communication cutoff adjusted to 0.006 (src/comm.cpp:752)
Per MPI rank memory allocation (min/avg/max) = 72.27 | 72.27 | 72.27 Mbytes
   Step         PotEng         KinEng         E_bond        E_angle         TotEng         E_coul         E_mol         E_dihed         E_pair         E_vdwl    
         0   3.631394e-08   0              0              3.631394e-08   3.631394e-08   0              3.631394e-08   0              0              0            
      1000   3.7121608e-08  1.9801397e-09  0              3.7121608e-08  3.9101748e-08  0              3.7121608e-08  0              0              0            
      2000   3.9270394e-08  6.0207682e-09  0              3.9270394e-08  4.5291162e-08  0              3.9270394e-08  0              0              0            
      3000   4.3018546e-08  1.1849603e-08  0              4.3018546e-08  5.486815e-08   0              4.3018546e-08  0              0              0            
      4000   4.8754185e-08  1.8555188e-08  0              4.8754185e-08  6.7309372e-08  0              4.8754185e-08  0              0              0            
      5000   5.7429545e-08  2.4715847e-08  0              5.7429545e-08  8.2145392e-08  0              5.7429545e-08  0              0              0            
      6000   7.0108553e-08  2.8741769e-08  0              7.0108553e-08  9.8850322e-08  0              7.0108553e-08  0              0              0            
      7000   8.7532218e-08  2.8649564e-08  0              8.7532218e-08  1.1618178e-07  0              8.7532218e-08  0              0              0            
      8000   1.0721353e-07  2.4818798e-08  0              1.0721353e-07  1.3203233e-07  0              1.0721353e-07  0              0              0            
      9000   1.2533739e-07  1.9409744e-08  0              1.2533739e-07  1.4474713e-07  0              1.2533739e-07  0              0              0            
     10000   1.4449414e-07  1.0338172e-08  0              1.4449414e-07  1.5483231e-07  0              1.4449414e-07  0              0              0            
     11000   1.5846638e-07  4.7763896e-09  0              1.5846638e-07  1.6324277e-07  0              1.5846638e-07  0              0              0            
     12000   1.6678767e-07  7.8277254e-10  0              1.6678767e-07  1.6757044e-07  0              1.6678767e-07  0              0              0            
     13000   1.6066491e-07  4.2394255e-09  0              1.6066491e-07  1.6490434e-07  0              1.6066491e-07  0              0              0            
     14000   1.4717173e-07  9.7786668e-09  0              1.4717173e-07  1.569504e-07   0              1.4717173e-07  0              0              0            
     15000   1.284785e-07   1.8611452e-08  0              1.284785e-07   1.4708996e-07  0              1.284785e-07   0              0              0            
     16000   1.1028738e-07  2.5133969e-08  0              1.1028738e-07  1.3542135e-07  0              1.1028738e-07  0              0              0            
     17000   9.2100052e-08  2.8779486e-08  0              9.2100052e-08  1.2087954e-07  0              9.2100052e-08  0              0              0            
     18000   7.3899978e-08  3.0011253e-08  0              7.3899978e-08  1.0391123e-07  0              7.3899978e-08  0              0              0            
     19000   6.1174234e-08  2.6344954e-08  0              6.1174234e-08  8.7519188e-08  0              6.1174234e-08  0              0              0            
     20000   5.2930503e-08  2.070199e-08   0              5.2930503e-08  7.3632493e-08  0              5.2930503e-08  0              0              0            
     21000   4.6175657e-08  1.4509001e-08  0              4.6175657e-08  6.0684658e-08  0              4.6175657e-08  0              0              0            
     22000   4.2905392e-08  8.9557856e-09  0              4.2905392e-08  5.1861177e-08  0              4.2905392e-08  0              0              0            
     23000   3.9995444e-08  4.9160295e-09  0              3.9995444e-08  4.4911474e-08  0              3.9995444e-08  0              0              0            
     24000   3.9640383e-08  2.9497598e-09  0              3.9640383e-08  4.2590143e-08  0              3.9640383e-08  0              0              0            
     25000   3.9151947e-08  3.2860641e-09  0              3.9151947e-08  4.2438011e-08  0              3.9151947e-08  0              0              0            
     26000   4.1073087e-08  5.9118088e-09  0              4.1073087e-08  4.6984896e-08  0              4.1073087e-08  0              0              0            
     27000   4.3090236e-08  1.0492634e-08  0              4.3090236e-08  5.3582871e-08  0              4.3090236e-08  0              0              0            
     28000   4.8076765e-08  1.6492328e-08  0              4.8076765e-08  6.4569093e-08  0              4.8076765e-08  0              0              0            
     29000   5.3985022e-08  2.297754e-08   0              5.3985022e-08  7.6962562e-08  0              5.3985022e-08  0              0              0            
     30000   6.3277206e-08  2.9245728e-08  0              6.3277206e-08  9.2522933e-08  0              6.3277206e-08  0              0              0            
     31000   7.6738267e-08  3.2338148e-08  0              7.6738267e-08  1.0907642e-07  0              7.6738267e-08  0              0              0            
     32000   9.3273828e-08  3.2147209e-08  0              9.3273828e-08  1.2542104e-07  0              9.3273828e-08  0              0              0            
     33000   1.1256878e-07  2.8737035e-08  0              1.1256878e-07  1.4130581e-07  0              1.1256878e-07  0              0              0            
     34000   1.3272875e-07  2.2602834e-08  0              1.3272875e-07  1.5533158e-07  0              1.3272875e-07  0              0              0            
     35000   1.510803e-07   1.5309208e-08  0              1.510803e-07   1.663895e-07   0              1.510803e-07   0              0              0            
     36000   1.6488847e-07  9.1401413e-09  0              1.6488847e-07  1.7402862e-07  0              1.6488847e-07  0              0              0            
     37000   1.7119417e-07  6.6386884e-09  0              1.7119417e-07  1.7783285e-07  0              1.7119417e-07  0              0              0            
     38000   1.6828324e-07  8.6883e-09     0              1.6828324e-07  1.7697154e-07  0              1.6828324e-07  0              0              0            
     39000   1.5652136e-07  1.4742363e-08  0              1.5652136e-07  1.7126372e-07  0              1.5652136e-07  0              0              0            
     40000   1.3940877e-07  2.2390795e-08  0              1.3940877e-07  1.6179956e-07  0              1.3940877e-07  0              0              0            
     41000   1.2047391e-07  2.9458293e-08  0              1.2047391e-07  1.499322e-07   0              1.2047391e-07  0              0              0            
     42000   1.0232035e-07  3.4141713e-08  0              1.0232035e-07  1.3646207e-07  0              1.0232035e-07  0              0              0            
     43000   8.6125132e-08  3.5850053e-08  0              8.6125132e-08  1.2197518e-07  0              8.6125132e-08  0              0              0            
     44000   7.2501743e-08  3.4418532e-08  0              7.2501743e-08  1.0692028e-07  0              7.2501743e-08  0              0              0            
     45000   6.1210551e-08  3.0797813e-08  0              6.1210551e-08  9.2008364e-08  0              6.1210551e-08  0              0              0            
     46000   5.3329872e-08  2.6096159e-08  0              5.3329872e-08  7.9426031e-08  0              5.3329872e-08  0              0              0            
     47000   4.8139648e-08  2.0748607e-08  0              4.8139648e-08  6.8888255e-08  0              4.8139648e-08  0              0              0            
     48000   4.4730291e-08  1.646484e-08   0              4.4730291e-08  6.1195132e-08  0              4.4730291e-08  0              0              0            
     49000   4.2914525e-08  1.3599754e-08  0              4.2914525e-08  5.6514279e-08  0              4.2914525e-08  0              0              0            
     50000   4.2225176e-08  1.2770035e-08  0              4.2225176e-08  5.4995211e-08  0              4.2225176e-08  0              0              0            
     51000   4.3001502e-08  1.3762627e-08  0              4.3001502e-08  5.6764129e-08  0              4.3001502e-08  0              0              0            
     52000   4.4695387e-08  1.7015528e-08  0              4.4695387e-08  6.1710914e-08  0              4.4695387e-08  0              0              0            
     53000   4.8149259e-08  2.1566081e-08  0              4.8149259e-08  6.971534e-08   0              4.8149259e-08  0              0              0            
     54000   5.3260207e-08  2.7251339e-08  0              5.3260207e-08  8.0511546e-08  0              5.3260207e-08  0              0              0            
     55000   6.0561075e-08  3.3331984e-08  0              6.0561075e-08  9.3893058e-08  0              6.0561075e-08  0              0              0            
     56000   7.0700111e-08  3.7907914e-08  0              7.0700111e-08  1.0860803e-07  0              7.0700111e-08  0              0              0            
     57000   8.4018748e-08  4.1047612e-08  0              8.4018748e-08  1.2506636e-07  0              8.4018748e-08  0              0              0            
     58000   1.0070292e-07  4.1062702e-08  0              1.0070292e-07  1.4176563e-07  0              1.0070292e-07  0              0              0            
     59000   1.1749805e-07  3.9386206e-08  0              1.1749805e-07  1.5688426e-07  0              1.1749805e-07  0              0              0            
     60000   1.3351008e-07  3.6122547e-08  0              1.3351008e-07  1.6963262e-07  0              1.3351008e-07  0              0              0            
     61000   1.5106402e-07  2.9781011e-08  0              1.5106402e-07  1.8084503e-07  0              1.5106402e-07  0              0              0            
     62000   1.6581798e-07  2.5466461e-08  0              1.6581798e-07  1.9128445e-07  0              1.6581798e-07  0              0              0            
     63000   1.7788012e-07  2.1262497e-08  0              1.7788012e-07  1.9914262e-07  0              1.7788012e-07  0              0              0            
     64000   1.8074584e-07  2.0858938e-08  0              1.8074584e-07  2.0160478e-07  0              1.8074584e-07  0              0              0            
     65000   1.7485259e-07  2.3909803e-08  0              1.7485259e-07  1.987624e-07   0              1.7485259e-07  0              0              0            
     66000   1.6491682e-07  2.8478744e-08  0              1.6491682e-07  1.9339556e-07  0              1.6491682e-07  0              0              0            
     67000   1.5094999e-07  3.5874525e-08  0              1.5094999e-07  1.8682451e-07  0              1.5094999e-07  0              0              0            
     68000   1.3685487e-07  4.0971758e-08  0              1.3685487e-07  1.7782662e-07  0              1.3685487e-07  0              0              0            
     69000   1.198307e-07   4.5802233e-08  0              1.198307e-07   1.6563293e-07  0              1.198307e-07   0              0              0            
     70000   1.0296364e-07  4.8503365e-08  0              1.0296364e-07  1.51467e-07    0              1.0296364e-07  0              0              0            
     71000   8.9436602e-08  4.8031025e-08  0              8.9436602e-08  1.3746763e-07  0              8.9436602e-08  0              0              0            
     72000   7.8435794e-08  4.6701689e-08  0              7.8435794e-08  1.2513748e-07  0              7.8435794e-08  0              0              0            
     73000   7.019238e-08   4.4306919e-08  0              7.019238e-08   1.144993e-07   0              7.019238e-08   0              0              0            
     74000   6.3074481e-08  4.102014e-08   0              6.3074481e-08  1.0409462e-07  0              6.3074481e-08  0              0              0            
     75000   5.9088335e-08  3.5549361e-08  0              5.9088335e-08  9.4637696e-08  0              5.9088335e-08  0              0              0            
     76000   5.5786824e-08  3.3461594e-08  0              5.5786824e-08  8.9248419e-08  0              5.5786824e-08  0              0              0            
     77000   5.6325763e-08  3.1399242e-08  0              5.6325763e-08  8.7725005e-08  0              5.6325763e-08  0              0              0            
     78000   5.3377954e-08  3.3017732e-08  0              5.3377954e-08  8.6395686e-08  0              5.3377954e-08  0              0              0            
     79000   5.5324643e-08  3.2453866e-08  0              5.5324643e-08  8.7778508e-08  0              5.5324643e-08  0              0              0            
     80000   5.6775453e-08  3.6893376e-08  0              5.6775453e-08  9.3668829e-08  0              5.6775453e-08  0              0              0            
     81000   6.3259562e-08  3.9482004e-08  0              6.3259562e-08  1.0274157e-07  0              6.3259562e-08  0              0              0            
     82000   6.573529e-08   4.5687121e-08  0              6.573529e-08   1.1142241e-07  0              6.573529e-08   0              0              0            
     83000   7.3013105e-08  4.9597973e-08  0              7.3013105e-08  1.2261108e-07  0              7.3013105e-08  0              0              0            
     84000   8.2001897e-08  5.4761333e-08  0              8.2001897e-08  1.3676323e-07  0              8.2001897e-08  0              0              0            
     85000   9.4501352e-08  5.834234e-08   0              9.4501352e-08  1.5284369e-07  0              9.4501352e-08  0              0              0            
     86000   1.1003261e-07  5.8943108e-08  0              1.1003261e-07  1.6897572e-07  0              1.1003261e-07  0              0              0            
     87000   1.2370628e-07  5.96761e-08    0              1.2370628e-07  1.8338238e-07  0              1.2370628e-07  0              0              0            
     88000   1.3534281e-07  6.0233451e-08  0              1.3534281e-07  1.9557626e-07  0              1.3534281e-07  0              0              0            
     89000   1.5064514e-07  5.6197124e-08  0              1.5064514e-07  2.0684226e-07  0              1.5064514e-07  0              0              0            
     90000   1.6560722e-07  5.3279544e-08  0              1.6560722e-07  2.1888676e-07  0              1.6560722e-07  0              0              0            
     91000   1.7957459e-07  5.1503557e-08  0              1.7957459e-07  2.3107814e-07  0              1.7957459e-07  0              0              0            
     92000   1.9328444e-07  4.6847753e-08  0              1.9328444e-07  2.4013219e-07  0              1.9328444e-07  0              0              0            
     93000   1.9562718e-07  4.7986499e-08  0              1.9562718e-07  2.4361368e-07  0              1.9562718e-07  0              0              0            
     94000   1.9390038e-07  4.8874561e-08  0              1.9390038e-07  2.4277494e-07  0              1.9390038e-07  0              0              0            
     95000   1.9006096e-07  5.0883715e-08  0              1.9006096e-07  2.4094467e-07  0              1.9006096e-07  0              0              0            
     96000   1.8155078e-07  5.758932e-08   0              1.8155078e-07  2.391401e-07   0              1.8155078e-07  0              0              0            
     97000   1.7431915e-07  6.0807144e-08  0              1.7431915e-07  2.3512629e-07  0              1.7431915e-07  0              0              0            
     98000   1.6091878e-07  6.606478e-08   0              1.6091878e-07  2.2698356e-07  0              1.6091878e-07  0              0              0            
     99000   1.4394373e-07  7.1555765e-08  0              1.4394373e-07  2.1549949e-07  0              1.4394373e-07  0              0              0            
    100000   1.3053594e-07  7.2792035e-08  0              1.3053594e-07  2.0332798e-07  0              1.3053594e-07  0              0              0            
    101000   1.1853477e-07  7.4182624e-08  0              1.1853477e-07  1.9271739e-07  0              1.1853477e-07  0              0              0            
    102000   1.0819845e-07  7.5898181e-08  0              1.0819845e-07  1.8409663e-07  0              1.0819845e-07  0              0              0            
    103000   1.0171404e-07  7.4800031e-08  0              1.0171404e-07  1.7651407e-07  0              1.0171404e-07  0              0              0            
    104000   9.6491531e-08  7.2327349e-08  0              9.6491531e-08  1.6881888e-07  0              9.6491531e-08  0              0              0            
    105000   8.8130461e-08  7.1887298e-08  0              8.8130461e-08  1.6001776e-07  0              8.8130461e-08  0              0              0            
    106000   8.0820863e-08  7.0441915e-08  0              8.0820863e-08  1.5126278e-07  0              8.0820863e-08  0              0              0            
    107000   7.7058739e-08  6.7612366e-08  0              7.7058739e-08  1.446711e-07   0              7.7058739e-08  0              0              0            
    108000   7.4926614e-08  6.6430951e-08  0              7.4926614e-08  1.4135757e-07  0              7.4926614e-08  0              0              0            
    109000   7.3798889e-08  6.7779299e-08  0              7.3798889e-08  1.4157819e-07  0              7.3798889e-08  0              0              0            
    110000   7.5260963e-08  6.9439204e-08  0              7.5260963e-08  1.4470017e-07  0              7.5260963e-08  0              0              0            
    111000   7.7589493e-08  7.0596605e-08  0              7.7589493e-08  1.481861e-07   0              7.7589493e-08  0              0              0            
    112000   7.8056622e-08  7.3621786e-08  0              7.8056622e-08  1.5167841e-07  0              7.8056622e-08  0              0              0            
    113000   8.1435184e-08  7.598876e-08   0              8.1435184e-08  1.5742394e-07  0              8.1435184e-08  0              0              0            
    114000   8.6418194e-08  7.9777116e-08  0              8.6418194e-08  1.6619531e-07  0              8.6418194e-08  0              0              0            
    115000   9.2924832e-08  8.5005432e-08  0              9.2924832e-08  1.7793026e-07  0              9.2924832e-08  0              0              0            
    116000   1.0226616e-07  8.9514792e-08  0              1.0226616e-07  1.9178095e-07  0              1.0226616e-07  0              0              0            
    117000   1.1409921e-07  9.2275766e-08  0              1.1409921e-07  2.0637498e-07  0              1.1409921e-07  0              0              0            
    118000   1.2529052e-07  9.5075326e-08  0              1.2529052e-07  2.2036585e-07  0              1.2529052e-07  0              0              0            
    119000   1.3406125e-07  9.9033023e-08  0              1.3406125e-07  2.3309427e-07  0              1.3406125e-07  0              0              0            
    120000   1.4357597e-07  1.0141975e-07  0              1.4357597e-07  2.4499571e-07  0              1.4357597e-07  0              0              0            
    121000   1.5681608e-07  1.0057449e-07  0              1.5681608e-07  2.5739057e-07  0              1.5681608e-07  0              0              0            
    122000   1.7070609e-07  1.0072384e-07  0              1.7070609e-07  2.7142994e-07  0              1.7070609e-07  0              0              0            
    123000   1.8501402e-07  1.0168056e-07  0              1.8501402e-07  2.8669458e-07  0              1.8501402e-07  0              0              0            
    124000   2.0201162e-07  9.8937284e-08  0              2.0201162e-07  3.009489e-07   0              2.0201162e-07  0              0              0            
    125000   2.1461439e-07  9.7095179e-08  0              2.1461439e-07  3.1170957e-07  0              2.1461439e-07  0              0              0            
    126000   2.1983933e-07  9.8448224e-08  0              2.1983933e-07  3.1828756e-07  0              2.1983933e-07  0              0              0            
    127000   2.253052e-07   9.7098861e-08  0              2.253052e-07   3.2240406e-07  0              2.253052e-07   0              0              0            
    128000   2.2901225e-07  9.7466589e-08  0              2.2901225e-07  3.2647884e-07  0              2.2901225e-07  0              0              0            
    129000   2.2899236e-07  1.019379e-07   0              2.2899236e-07  3.3093026e-07  0              2.2899236e-07  0              0              0            
    130000   2.2990018e-07  1.0374162e-07  0              2.2990018e-07  3.336418e-07   0              2.2990018e-07  0              0              0            
    131000   2.2506027e-07  1.0728421e-07  0              2.2506027e-07  3.3234449e-07  0              2.2506027e-07  0              0              0            
    132000   2.1296549e-07  1.1393079e-07  8.3664642e-17  2.1296549e-07  3.2689628e-07  0              2.1296549e-07  0              0              0            
    133000   2.0172551e-07  1.1764676e-07  2.856011e-12   2.0172265e-07  3.1937227e-07  0              2.0172551e-07  0              0              0            
    134000   2.1279809e-07  9.9471057e-08  2.1288576e-08  1.9150951e-07  3.1226915e-07  0              2.1279809e-07  0              0              0            
    135000   1.8117122e-07  1.2539321e-07  1.8292471e-11  1.8115293e-07  3.0656444e-07  0              1.8117122e-07  0              0              0            
    136000   1.7359963e-07  1.2766831e-07  5.8663536e-16  1.7359963e-07  3.0126794e-07  0              1.7359963e-07  0              0              0            
    137000   1.6712108e-07  1.2771866e-07  0              1.6712108e-07  2.9483974e-07  0              1.6712108e-07  0              0              0            
    138000   1.5761415e-07  1.2890459e-07  0              1.5761415e-07  2.8651874e-07  0              1.5761415e-07  0              0              0            
    139000   1.4589067e-07  1.3080891e-07  0              1.4589067e-07  2.7669958e-07  0              1.4589067e-07  0              0              0            
    140000   1.3554493e-07  1.3104764e-07  0              1.3554493e-07  2.6659257e-07  0              1.3554493e-07  0              0              0            
    141000   1.2792497e-07  1.2966182e-07  0              1.2792497e-07  2.5758679e-07  0              1.2792497e-07  0              0              0            
    142000   1.2193152e-07  1.2874595e-07  0              1.2193152e-07  2.5067746e-07  0              1.2193152e-07  0              0              0            
    143000   1.1712398e-07  1.2906273e-07  0              1.1712398e-07  2.4618671e-07  0              1.1712398e-07  0              0              0            
    144000   1.1436833e-07  1.2945071e-07  0              1.1436833e-07  2.4381904e-07  0              1.1436833e-07  0              0              0            
    145000   1.138537e-07   1.2910123e-07  0              1.138537e-07   2.4295493e-07  0              1.138537e-07   0              0              0            
    146000   1.1438554e-07  1.2858969e-07  0              1.1438554e-07  2.4297522e-07  0              1.1438554e-07  0              0              0            
    147000   1.1434084e-07  1.289621e-07   0              1.1434084e-07  2.4330295e-07  0              1.1434084e-07  0              0              0            
    148000   1.1261924e-07  1.3125367e-07  0              1.1261924e-07  2.4387291e-07  0              1.1261924e-07  0              0              0            
    149000   1.1127924e-07  1.338132e-07   0              1.1127924e-07  2.4509244e-07  0              1.1127924e-07  0              0              0            
    150000   1.1171959e-07  1.3595728e-07  0              1.1171959e-07  2.4767687e-07  0              1.1171959e-07  0              0              0            
    151000   1.1434846e-07  1.378691e-07   0              1.1434846e-07  2.5221756e-07  0              1.1434846e-07  0              0              0            
    152000   1.1859853e-07  1.4054709e-07  0              1.1859853e-07  2.5914562e-07  0              1.1859853e-07  0              0              0            
    153000   1.2399431e-07  1.4455803e-07  0              1.2399431e-07  2.6855234e-07  0              1.2399431e-07  0              0              0            
    154000   1.3104223e-07  1.4906253e-07  1.595809e-16   1.3104223e-07  2.8010476e-07  0              1.3104223e-07  0              0              0            
    155000   1.4188063e-07  1.5122804e-07  1.4532478e-09  1.4042738e-07  2.9310866e-07  0              1.4188063e-07  0              0              0            
    156000   1.5168247e-07  1.5351068e-07  1.9921574e-10  1.5148326e-07  3.0519316e-07  0              1.5168247e-07  0              0              0            
    157000   1.6257163e-07  1.5318701e-07  1.78588e-17    1.6257163e-07  3.1575864e-07  0              1.6257163e-07  0              0              0            
    158000   1.713277e-07   1.5385389e-07  0              1.713277e-07   3.2518159e-07  0              1.713277e-07   0              0              0            
    159000   1.7742913e-07  1.5576361e-07  0              1.7742913e-07  3.3319275e-07  0              1.7742913e-07  0              0              0            
    160000   1.8382799e-07  1.5637189e-07  0              1.8382799e-07  3.4019988e-07  0              1.8382799e-07  0              0              0            
    161000   1.9314239e-07  1.540399e-07   0              1.9314239e-07  3.471823e-07   0              1.9314239e-07  0              0              0            
    162000   2.031941e-07   1.5198908e-07  0              2.031941e-07   3.5518318e-07  0              2.031941e-07   0              0              0            
    163000   2.1160594e-07  1.528693e-07   0              2.1160594e-07  3.6447524e-07  0              2.1160594e-07  0              0              0            
    164000   2.2202377e-07  1.5201908e-07  6.1691653e-10  2.2140685e-07  3.7404285e-07  0              2.2202377e-07  0              0              0            
    165000   2.3483137e-07  1.4713325e-07  3.2026621e-13  2.3483105e-07  3.8196461e-07  0              2.3483137e-07  0              0              0            
    166000   2.4406317e-07  1.4236605e-07  0              2.4406317e-07  3.8642922e-07  0              2.4406317e-07  0              0              0            
    167000   2.4553244e-07  1.4137568e-07  0              2.4553244e-07  3.8690812e-07  0              2.4553244e-07  0              0              0            
    168000   2.4622319e-07  1.3830045e-07  0              2.4622319e-07  3.8452363e-07  0              2.4622319e-07  0              0              0            
    169000   2.481005e-07   1.3315991e-07  0              2.481005e-07   3.812604e-07   0              2.481005e-07   0              0              0            
    170000   2.4492388e-07  1.3349053e-07  0              2.4492388e-07  3.7841441e-07  0              2.4492388e-07  0              0              0            
    171000   2.3972725e-07  1.3571419e-07  0              2.3972725e-07  3.7544144e-07  0              2.3972725e-07  0              0              0            
    172000   2.3622488e-07  1.3428482e-07  0              2.3622488e-07  3.7050971e-07  0              2.3622488e-07  0              0              0            
    173000   2.281426e-07   1.3390639e-07  0              2.281426e-07   3.6204899e-07  0              2.281426e-07   0              0              0            
    174000   2.1231962e-07  1.3746159e-07  0              2.1231962e-07  3.4978121e-07  0              2.1231962e-07  0              0              0            
    175000   1.9432362e-07  1.4046401e-07  0              1.9432362e-07  3.3478763e-07  0              1.9432362e-07  0              0              0            
    176000   1.792235e-07   1.3964172e-07  0              1.792235e-07   3.1886522e-07  0              1.792235e-07   0              0              0            
    177000   1.654476e-07   1.3819907e-07  0              1.654476e-07   3.0364667e-07  0              1.654476e-07   0              0              0            
    178000   1.5126934e-07  1.3863251e-07  7.8979984e-18  1.5126934e-07  2.8990184e-07  0              1.5126934e-07  0              0              0            
    179000   1.3933869e-07  1.3813916e-07  6.4122702e-14  1.3933863e-07  2.7747785e-07  0              1.3933869e-07  0              0              0            
    180000   1.3135622e-07  1.3441722e-07  3.7386592e-10  1.3098235e-07  2.6577344e-07  0              1.3135622e-07  0              0              0            
    181000   1.4504809e-07  1.0829762e-07  1.8419063e-08  1.2662903e-07  2.5334571e-07  0              1.4504809e-07  0              0              0            
    182000   1.1059717e-07  1.2772001e-07  6.7324011e-12  1.1059044e-07  2.3831717e-07  0              1.1059717e-07  0              0              0            
    183000   1.036265e-07   1.2071645e-07  9.7180311e-16  1.036265e-07   2.2434295e-07  0              1.036265e-07   0              0              0            
    184000   1.0061659e-07  1.1257124e-07  9.626803e-20   1.0061659e-07  2.1318783e-07  0              1.0061659e-07  0              0              0            
    185000   9.647989e-08   1.0923533e-07  0              9.647989e-08   2.0571522e-07  0              9.647989e-08   0              0              0            
    186000   9.1620802e-08  1.1035579e-07  0              9.1620802e-08  2.0197659e-07  0              9.1620802e-08  0              0              0            
    187000   9.3550238e-08  1.0769075e-07  0              9.3550238e-08  2.0124099e-07  0              9.3550238e-08  0              0              0            
    188000   9.8535504e-08  1.0249422e-07  0              9.8535504e-08  2.0102972e-07  0              9.8535504e-08  0              0              0            
    189000   9.1877662e-08  1.085466e-07   0              9.1877662e-08  2.0042426e-07  0              9.1877662e-08  0              0              0            
    190000   9.654647e-08   1.0525928e-07  0              9.654647e-08   2.0180575e-07  0              9.654647e-08   0              0              0            
    191000   1.0283192e-07  1.0370281e-07  0              1.0283192e-07  2.0653472e-07  0              1.0283192e-07  0              0              0            
    192000   1.0709944e-07  1.0778549e-07  0              1.0709944e-07  2.1488493e-07  0              1.0709944e-07  0              0              0            
    193000   1.1374826e-07  1.1238332e-07  0              1.1374826e-07  2.2613158e-07  0              1.1374826e-07  0              0              0            
    194000   1.2917103e-07  1.0949125e-07  0              1.2917103e-07  2.3866228e-07  0              1.2917103e-07  0              0              0            
    195000   1.3893016e-07  1.1025914e-07  0              1.3893016e-07  2.491893e-07   0              1.3893016e-07  0              0              0            
    196000   1.4712862e-07  1.1061884e-07  0              1.4712862e-07  2.5774746e-07  0              1.4712862e-07  0              0              0            
    197000   1.6053665e-07  1.0541837e-07  0              1.6053665e-07  2.6595502e-07  0              1.6053665e-07  0              0              0            
    198000   1.7674519e-07  9.8183831e-08  0              1.7674519e-07  2.7492902e-07  0              1.7674519e-07  0              0              0            
    199000   1.8855804e-07  9.6439729e-08  0              1.8855804e-07  2.8499777e-07  0              1.8855804e-07  0              0              0            
    200000   2.0281196e-07  9.1783114e-08  0              2.0281196e-07  2.9459507e-07  0              2.0281196e-07  0              0              0            
    201000   2.1875174e-07  8.2195178e-08  0              2.1875174e-07  3.0094691e-07  0              2.1875174e-07  0              0              0            
    202000   2.2261602e-07  7.9310035e-08  0              2.2261602e-07  3.0192605e-07  0              2.2261602e-07  0              0              0            
    203000   2.1606475e-07  8.1470226e-08  0              2.1606475e-07  2.9753498e-07  0              2.1606475e-07  0              0              0            
    204000   2.1249215e-07  7.7498987e-08  0              2.1249215e-07  2.8999113e-07  0              2.1249215e-07  0              0              0            
    205000   2.0357979e-07  7.8404068e-08  0              2.0357979e-07  2.8198385e-07  0              2.0357979e-07  0              0              0            
    206000   1.8833446e-07  8.5670055e-08  0              1.8833446e-07  2.7400452e-07  0              1.8833446e-07  0              0              0            
    207000   1.7834769e-07  8.5902087e-08  0              1.7834769e-07  2.6424977e-07  0              1.7834769e-07  0              0              0            
    208000   1.6540771e-07  8.5636436e-08  0              1.6540771e-07  2.5104415e-07  0              1.6540771e-07  0              0              0            
    209000   1.4498191e-07  8.9321269e-08  0              1.4498191e-07  2.3430318e-07  0              1.4498191e-07  0              0              0            
    210000   1.2462468e-07  9.0862211e-08  0              1.2462468e-07  2.1548689e-07  0              1.2462468e-07  0              0              0            
    211000   1.1042458e-07  8.6366176e-08  0              1.1042458e-07  1.9679075e-07  0              1.1042458e-07  0              0              0            
    212000   9.9247459e-08  8.0900487e-08  0              9.9247459e-08  1.8014795e-07  0              9.9247459e-08  0              0              0            
    213000   8.7975872e-08  7.8499321e-08  0              8.7975872e-08  1.6647519e-07  0              8.7975872e-08  0              0              0            
    214000   8.2042553e-08  7.3487724e-08  0              8.2042553e-08  1.5553028e-07  0              8.2042553e-08  0              0              0            
    215000   7.8347239e-08  6.6485159e-08  0              7.8347239e-08  1.448324e-07   0              7.8347239e-08  0              0              0            
    216000   7.0188821e-08  6.397538e-08   0              7.0188821e-08  1.341642e-07   0              7.0188821e-08  0              0              0            
    217000   7.015657e-08   5.684691e-08   0              7.015657e-08   1.2700348e-07  0              7.015657e-08   0              0              0            
    218000   6.7414092e-08  5.7010748e-08  0              6.7414092e-08  1.2442484e-07  0              6.7414092e-08  0              0              0            
    219000   6.6868508e-08  5.9244898e-08  0              6.6868508e-08  1.2611341e-07  0              6.6868508e-08  0              0              0            
    220000   7.3397495e-08  5.5736674e-08  0              7.3397495e-08  1.2913417e-07  0              7.3397495e-08  0              0              0            
    221000   7.0310209e-08  6.1758949e-08  0              7.0310209e-08  1.3206916e-07  0              7.0310209e-08  0              0              0            
    222000   7.7395382e-08  6.0576462e-08  0              7.7395382e-08  1.3797184e-07  0              7.7395382e-08  0              0              0            
    223000   8.2904879e-08  6.5031085e-08  0              8.2904879e-08  1.4793596e-07  0              8.2904879e-08  0              0              0            
    224000   9.0052314e-08  7.1280533e-08  0              9.0052314e-08  1.6133285e-07  0              9.0052314e-08  0              0              0            
    225000   1.074226e-07   6.832342e-08   0              1.074226e-07   1.7574602e-07  0              1.074226e-07   0              0              0            
    226000   1.1484158e-07  7.2648891e-08  0              1.1484158e-07  1.8749047e-07  0              1.1484158e-07  0              0              0            
    227000   1.2893432e-07  6.9735298e-08  0              1.2893432e-07  1.9866961e-07  0              1.2893432e-07  0              0              0            
    228000   1.4668395e-07  6.3805167e-08  0              1.4668395e-07  2.1048912e-07  0              1.4668395e-07  0              0              0            
    229000   1.6278253e-07  6.0358244e-08  0              1.6278253e-07  2.2314078e-07  0              1.6278253e-07  0              0              0            
    230000   1.8149286e-07  5.3205622e-08  0              1.8149286e-07  2.3469849e-07  0              1.8149286e-07  0              0              0            
    231000   1.9733189e-07  4.4652162e-08  0              1.9733189e-07  2.4198405e-07  0              1.9733189e-07  0              0              0            
    232000   1.9996163e-07  4.3269471e-08  0              1.9996163e-07  2.432311e-07   0              1.9996163e-07  0              0              0            
    233000   1.9950526e-07  4.0320279e-08  0              1.9950526e-07  2.3982554e-07  0              1.9950526e-07  0              0              0            
    234000   1.9379197e-07  4.0985965e-08  0              1.9379197e-07  2.3477793e-07  0              1.9379197e-07  0              0              0            
    235000   1.8108088e-07  4.7654412e-08  0              1.8108088e-07  2.2873529e-07  0              1.8108088e-07  0              0              0            
    236000   1.6953684e-07  4.9914186e-08  0              1.6953684e-07  2.1945102e-07  0              1.6953684e-07  0              0              0            
    237000   1.501902e-07   5.5228397e-08  0              1.501902e-07   2.054186e-07   0              1.501902e-07   0              0              0            
    238000   1.2750357e-07  6.0263275e-08  0              1.2750357e-07  1.8776684e-07  0              1.2750357e-07  0              0              0            
    239000   1.1011276e-07  5.9175218e-08  0              1.1011276e-07  1.6928798e-07  0              1.1011276e-07  0              0              0            
    240000   9.5072039e-08  5.7346472e-08  0              9.5072039e-08  1.5241851e-07  0              9.5072039e-08  0              0              0            
    241000   8.1780012e-08  5.6151522e-08  0              8.1780012e-08  1.3793153e-07  0              8.1780012e-08  0              0              0            
    242000   7.7648047e-08  4.6986289e-08  0              7.7648047e-08  1.2463434e-07  0              7.7648047e-08  0              0              0            
    243000   6.4362316e-08  4.5461705e-08  0              6.4362316e-08  1.0982402e-07  0              6.4362316e-08  0              0              0            
    244000   6.1692759e-08  3.5919896e-08  0              6.1692759e-08  9.7612655e-08  0              6.1692759e-08  0              0              0            
    245000   5.6718948e-08  3.3522388e-08  0              5.6718948e-08  9.0241336e-08  0              5.6718948e-08  0              0              0            
    246000   5.7129451e-08  3.0199669e-08  0              5.7129451e-08  8.732912e-08   0              5.7129451e-08  0              0              0            
    247000   5.5256621e-08  2.9706741e-08  0              5.5256621e-08  8.4963361e-08  0              5.5256621e-08  0              0              0            
    248000   5.4678863e-08  2.8846953e-08  0              5.4678863e-08  8.3525817e-08  0              5.4678863e-08  0              0              0            
    249000   5.7265692e-08  2.9696334e-08  0              5.7265692e-08  8.6962025e-08  0              5.7265692e-08  0              0              0            
    250000   5.7495979e-08  3.7995914e-08  0              5.7495979e-08  9.5491893e-08  0              5.7495979e-08  0              0              0            
    251000   6.874957e-08   3.7134678e-08  0              6.874957e-08   1.0588425e-07  0              6.874957e-08   0              0              0            
    252000   7.0399566e-08  4.4704679e-08  0              7.0399566e-08  1.1510425e-07  0              7.0399566e-08  0              0              0            
    253000   8.1450195e-08  4.5439108e-08  0              8.1450195e-08  1.268893e-07   0              8.1450195e-08  0              0              0            
    254000   9.2573834e-08  4.9496491e-08  0              9.2573834e-08  1.4207032e-07  0              9.2573834e-08  0              0              0            
    255000   1.0967038e-07  4.9329127e-08  0              1.0967038e-07  1.5899951e-07  0              1.0967038e-07  0              0              0            
    256000   1.3202712e-07  4.22622e-08    0              1.3202712e-07  1.7428932e-07  0              1.3202712e-07  0              0              0            
    257000   1.4507872e-07  3.99153e-08    0              1.4507872e-07  1.8499402e-07  0              1.4507872e-07  0              0              0            
    258000   1.5650019e-07  3.4899843e-08  0              1.5650019e-07  1.9140003e-07  0              1.5650019e-07  0              0              0            
    259000   1.7282448e-07  2.4418741e-08  0              1.7282448e-07  1.9724323e-07  0              1.7282448e-07  0              0              0            
    260000   1.783589e-07   2.5777478e-08  0              1.783589e-07   2.0413637e-07  0              1.783589e-07   0              0              0            
    261000   1.8889237e-07  1.8306418e-08  0              1.8889237e-07  2.0719879e-07  0              1.8889237e-07  0              0              0            
    262000   1.7724145e-07  2.4706144e-08  0              1.7724145e-07  2.0194759e-07  0              1.7724145e-07  0              0              0            
    263000   1.6400416e-07  2.6991668e-08  0              1.6400416e-07  1.9099582e-07  0              1.6400416e-07  0              0              0            
    264000   1.4876097e-07  3.1698873e-08  0              1.4876097e-07  1.8045984e-07  0              1.4876097e-07  0              0              0            
    265000   1.3130656e-07  3.9969052e-08  0              1.3130656e-07  1.7127562e-07  0              1.3130656e-07  0              0              0            
    266000   1.2092097e-07  3.8666776e-08  0              1.2092097e-07  1.5958775e-07  0              1.2092097e-07  0              0              0            
    267000   1.0098305e-07  4.242825e-08   0              1.0098305e-07  1.434113e-07   0              1.0098305e-07  0              0              0            
    268000   8.2291205e-08  4.2555366e-08  0              8.2291205e-08  1.2484657e-07  0              8.2291205e-08  0              0              0            
    269000   7.2043819e-08  3.5755438e-08  0              7.2043819e-08  1.0779926e-07  0              7.2043819e-08  0              0              0            
    270000   6.2127276e-08  3.2593978e-08  0              6.2127276e-08  9.4721255e-08  0              6.2127276e-08  0              0              0            
    271000   5.9741849e-08  2.5480757e-08  0              5.9741849e-08  8.5222606e-08  0              5.9741849e-08  0              0              0            
    272000   4.9836604e-08  2.466646e-08   0              4.9836604e-08  7.4503064e-08  0              4.9836604e-08  0              0              0            
    273000   5.0171348e-08  1.5432614e-08  0              5.0171348e-08  6.5603962e-08  0              5.0171348e-08  0              0              0            
    274000   4.7170974e-08  1.5235167e-08  0              4.7170974e-08  6.2406141e-08  0              4.7170974e-08  0              0              0            
    275000   5.1207459e-08  1.2823609e-08  0              5.1207459e-08  6.4031068e-08  0              5.1207459e-08  0              0              0            
    276000   4.5876158e-08  1.8854645e-08  0              4.5876158e-08  6.4730803e-08  0              4.5876158e-08  0              0              0            
    277000   5.1222824e-08  1.6543434e-08  0              5.1222824e-08  6.7766258e-08  0              5.1222824e-08  0              0              0            
    278000   5.3297671e-08  2.2962758e-08  0              5.3297671e-08  7.6260429e-08  0              5.3297671e-08  0              0              0            
    279000   6.2914948e-08  2.6234549e-08  0              6.2914948e-08  8.9149497e-08  0              6.2914948e-08  0              0              0            
    280000   6.556974e-08   3.4461413e-08  0              6.556974e-08   1.0003115e-07  0              6.556974e-08   0              0              0            
    281000   7.638812e-08   3.5087635e-08  0              7.638812e-08   1.1147576e-07  0              7.638812e-08   0              0              0            
    282000   8.8711936e-08  3.7657451e-08  0              8.8711936e-08  1.2636939e-07  0              8.8711936e-08  0              0              0            
    283000   1.0573913e-07  3.774379e-08   0              1.0573913e-07  1.4348292e-07  0              1.0573913e-07  0              0              0            
    284000   1.2727244e-07  3.1361787e-08  0              1.2727244e-07  1.5863423e-07  0              1.2727244e-07  0              0              0            
    285000   1.3896219e-07  2.9663021e-08  0              1.3896219e-07  1.6862521e-07  0              1.3896219e-07  0              0              0            
    286000   1.5604192e-07  1.9768459e-08  0              1.5604192e-07  1.7581038e-07  0              1.5604192e-07  0              0              0            
    287000   1.6728568e-07  1.7355127e-08  0              1.6728568e-07  1.8464081e-07  0              1.6728568e-07  0              0              0            
    288000   1.8180458e-07  9.7514508e-09  0              1.8180458e-07  1.9155603e-07  0              1.8180458e-07  0              0              0            
    289000   1.7693136e-07  1.306971e-08   0              1.7693136e-07  1.9000107e-07  0              1.7693136e-07  0              0              0            
    290000   1.7176995e-07  1.1676339e-08  0              1.7176995e-07  1.8344629e-07  0              1.7176995e-07  0              0              0            
    291000   1.573445e-07   2.1151211e-08  0              1.573445e-07   1.7849571e-07  0              1.573445e-07   0              0              0            
    292000   1.4842885e-07  2.3053244e-08  0              1.4842885e-07  1.7148209e-07  0              1.4842885e-07  0              0              0            
    293000   1.2585387e-07  3.1860585e-08  0              1.2585387e-07  1.5771446e-07  0              1.2585387e-07  0              0              0            
    294000   1.0844408e-07  3.262628e-08   0              1.0844408e-07  1.4107036e-07  0              1.0844408e-07  0              0              0            
    295000   9.2499469e-08  3.48835e-08    0              9.2499469e-08  1.2738297e-07  0              9.2499469e-08  0              0              0            
    296000   8.1457016e-08  3.5034767e-08  0              8.1457016e-08  1.1649178e-07  0              8.1457016e-08  0              0              0            
    297000   7.1407505e-08  3.1820587e-08  0              7.1407505e-08  1.0322809e-07  0              7.1407505e-08  0              0              0            
    298000   6.12487e-08    2.615633e-08   0              6.12487e-08    8.740503e-08   0              6.12487e-08    0              0              0            
    299000   5.6555644e-08  1.9297077e-08  0              5.6555644e-08  7.585272e-08   0              5.6555644e-08  0              0              0            
    300000   4.9357655e-08  2.0746579e-08  0              4.9357655e-08  7.0104235e-08  0              4.9357655e-08  0              0              0            
    301000   5.2023373e-08  1.2907075e-08  0              5.2023373e-08  6.4930448e-08  0              5.2023373e-08  0              0              0            
    302000   4.7432387e-08  1.0247516e-08  0              4.7432387e-08  5.7679904e-08  0              4.7432387e-08  0              0              0            
    303000   4.7296145e-08  9.2494094e-09  0              4.7296145e-08  5.6545554e-08  0              4.7296145e-08  0              0              0            
    304000   5.0235325e-08  1.1534252e-08  0              5.0235325e-08  6.1769578e-08  0              5.0235325e-08  0              0              0            
    305000   4.7795907e-08  1.7431568e-08  0              4.7795907e-08  6.5227475e-08  0              4.7795907e-08  0              0              0            
    306000   5.3259643e-08  1.5423712e-08  0              5.3259643e-08  6.8683355e-08  0              5.3259643e-08  0              0              0            
    307000   5.6128916e-08  2.2436453e-08  0              5.6128916e-08  7.8565369e-08  0              5.6128916e-08  0              0              0            
    308000   6.8317408e-08  2.4786494e-08  0              6.8317408e-08  9.3103902e-08  0              6.8317408e-08  0              0              0            
    309000   7.0570172e-08  3.2590339e-08  0              7.0570172e-08  1.0316051e-07  0              7.0570172e-08  0              0              0            
    310000   8.1988738e-08  3.1342592e-08  0              8.1988738e-08  1.1333133e-07  0              8.1988738e-08  0              0              0            
    311000   9.3051713e-08  3.5356019e-08  0              9.3051713e-08  1.2840773e-07  0              9.3051713e-08  0              0              0            
    312000   1.1381333e-07  3.1478007e-08  0              1.1381333e-07  1.4529134e-07  0              1.1381333e-07  0              0              0            
    313000   1.2542253e-07  3.1224983e-08  0              1.2542253e-07  1.5664752e-07  0              1.2542253e-07  0              0              0            
    314000   1.4103152e-07  2.3209727e-08  0              1.4103152e-07  1.6424125e-07  0              1.4103152e-07  0              0              0            
    315000   1.5298628e-07  2.3186044e-08  0              1.5298628e-07  1.7617233e-07  0              1.5298628e-07  0              0              0            
    316000   1.721814e-07   1.3377947e-08  0              1.721814e-07   1.8555935e-07  0              1.721814e-07   0              0              0            
    317000   1.7315044e-07  1.2515298e-08  0              1.7315044e-07  1.8566574e-07  0              1.7315044e-07  0              0              0            
    318000   1.7307776e-07  1.5044838e-08  0              1.7307776e-07  1.881226e-07   0              1.7307776e-07  0              0              0            
    319000   1.7753165e-07  1.154059e-08   0              1.7753165e-07  1.8907224e-07  0              1.7753165e-07  0              0              0            
    320000   1.6186575e-07  1.8260926e-08  0              1.6186575e-07  1.8012667e-07  0              1.6186575e-07  0              0              0            
    321000   1.479381e-07   2.5859178e-08  0              1.479381e-07   1.7379728e-07  0              1.479381e-07   0              0              0            
    322000   1.4225825e-07  2.5490302e-08  0              1.4225825e-07  1.6774855e-07  0              1.4225825e-07  0              0              0            
    323000   1.1899992e-07  3.4338177e-08  0              1.1899992e-07  1.5333809e-07  0              1.1899992e-07  0              0              0            
    324000   1.0669499e-07  3.3591325e-08  0              1.0669499e-07  1.4028631e-07  0              1.0669499e-07  0              0              0            
    325000   9.6684026e-08  3.5626619e-08  0              9.6684026e-08  1.3231064e-07  0              9.6684026e-08  0              0              0            
    326000   8.6562883e-08  3.4074834e-08  0              8.6562883e-08  1.2063772e-07  0              8.6562883e-08  0              0              0            
    327000   7.2483262e-08  3.2636562e-08  0              7.2483262e-08  1.0511982e-07  0              7.2483262e-08  0              0              0            
    328000   6.5591224e-08  2.8264843e-08  0              6.5591224e-08  9.3856067e-08  0              6.5591224e-08  0              0              0            
    329000   6.0935406e-08  2.6978004e-08  0              6.0935406e-08  8.791341e-08   0              6.0935406e-08  0              0              0            
    330000   5.4217959e-08  2.4411408e-08  0              5.4217959e-08  7.8629367e-08  0              5.4217959e-08  0              0              0            
    331000   5.4051738e-08  1.6038143e-08  0              5.4051738e-08  7.0089882e-08  0              5.4051738e-08  0              0              0            
    332000   4.9187463e-08  2.0027563e-08  0              4.9187463e-08  6.9215027e-08  0              4.9187463e-08  0              0              0            
    333000   4.8605038e-08  1.9187186e-08  0              4.8605038e-08  6.7792224e-08  0              4.8605038e-08  0              0              0            
    334000   5.1616586e-08  1.3266235e-08  0              5.1616586e-08  6.4882821e-08  0              5.1616586e-08  0              0              0            
    335000   4.9655275e-08  2.0101962e-08  0              4.9655275e-08  6.9757237e-08  0              4.9655275e-08  0              0              0            
    336000   5.4769205e-08  2.1437468e-08  0              5.4769205e-08  7.6206673e-08  0              5.4769205e-08  0              0              0            
    337000   5.7452571e-08  2.1373925e-08  0              5.7452571e-08  7.8826496e-08  0              5.7452571e-08  0              0              0            
    338000   5.9815154e-08  2.8979148e-08  0              5.9815154e-08  8.8794302e-08  0              5.9815154e-08  0              0              0            
    339000   7.2562899e-08  2.9272214e-08  0              7.2562899e-08  1.0183511e-07  0              7.2562899e-08  0              0              0            
    340000   7.3171978e-08  3.5565847e-08  0              7.3171978e-08  1.0873782e-07  0              7.3171978e-08  0              0              0            
    341000   8.2288898e-08  3.8063942e-08  0              8.2288898e-08  1.2035284e-07  0              8.2288898e-08  0              0              0            
    342000   9.9261361e-08  3.7607148e-08  0              9.9261361e-08  1.3686851e-07  0              9.9261361e-08  0              0              0            
    343000   1.0329845e-07  4.3484403e-08  0              1.0329845e-07  1.4678285e-07  0              1.0329845e-07  0              0              0            
    344000   1.1778023e-07  4.0067396e-08  0              1.1778023e-07  1.5784763e-07  0              1.1778023e-07  0              0              0            
    345000   1.3901794e-07  3.4893435e-08  0              1.3901794e-07  1.7391137e-07  0              1.3901794e-07  0              0              0            
    346000   1.4637099e-07  3.4449245e-08  0              1.4637099e-07  1.8082024e-07  0              1.4637099e-07  0              0              0            
    347000   1.59251e-07    3.4187011e-08  0              1.59251e-07    1.9343801e-07  0              1.59251e-07    0              0              0            
    348000   1.6751201e-07  3.2571327e-08  0              1.6751201e-07  2.0008333e-07  0              1.6751201e-07  0              0              0            
    349000   1.7609417e-07  3.0246423e-08  0              1.7609417e-07  2.0634059e-07  0              1.7609417e-07  0              0              0            
    350000   1.8164041e-07  2.8836958e-08  0              1.8164041e-07  2.1047736e-07  0              1.8164041e-07  0              0              0            
    351000   1.8187179e-07  2.9220967e-08  1.4932405e-17  1.8187179e-07  2.1109276e-07  0              1.8187179e-07  0              0              0            
    352000   1.7982188e-07  3.1147287e-08  1.3031496e-13  1.7982175e-07  2.1096917e-07  0              1.7982188e-07  0              0              0            
    353000   1.7307517e-07  3.367162e-08   8.5987089e-10  1.722153e-07   2.0674679e-07  0              1.7307517e-07  0              0              0            
    354000   1.6755232e-07  3.5075999e-08  2.2554183e-09  1.652969e-07   2.0262832e-07  0              1.6755232e-07  0              0              0            
    355000   1.5406441e-07  3.9093672e-08  4.1100297e-13  1.54064e-07    1.9315809e-07  0              1.5406441e-07  0              0              0            
    356000   1.4862633e-07  3.8897314e-08  4.4084509e-17  1.4862633e-07  1.8752365e-07  0              1.4862633e-07  0              0              0            
    357000   1.3313969e-07  4.0050359e-08  0              1.3313969e-07  1.7319005e-07  0              1.3313969e-07  0              0              0            
    358000   1.2056405e-07  4.5690057e-08  0              1.2056405e-07  1.6625411e-07  0              1.2056405e-07  0              0              0            
    359000   1.0697071e-07  4.7532952e-08  0              1.0697071e-07  1.5450366e-07  0              1.0697071e-07  0              0              0            
    360000   9.7641453e-08  4.2131886e-08  0              9.7641453e-08  1.3977334e-07  0              9.7641453e-08  0              0              0            
    361000   8.7218633e-08  4.511114e-08   0              8.7218633e-08  1.3232977e-07  0              8.7218633e-08  0              0              0            
    362000   8.445805e-08   3.9283679e-08  0              8.445805e-08   1.2374173e-07  0              8.445805e-08   0              0              0            
    363000   7.088369e-08   3.9551563e-08  0              7.088369e-08   1.1043525e-07  0              7.088369e-08   0              0              0            
    364000   6.6684155e-08  3.3611517e-08  0              6.6684155e-08  1.0029567e-07  0              6.6684155e-08  0              0              0            
    365000   6.217238e-08   3.4157575e-08  0              6.217238e-08   9.6329956e-08  0              6.217238e-08   0              0              0            
    366000   5.9458436e-08  3.1677329e-08  0              5.9458436e-08  9.1135764e-08  0              5.9458436e-08  0              0              0            
    367000   5.7126289e-08  2.6484291e-08  0              5.7126289e-08  8.361058e-08   0              5.7126289e-08  0              0              0            
    368000   5.5420012e-08  2.6702361e-08  0              5.5420012e-08  8.2122372e-08  0              5.5420012e-08  0              0              0            
    369000   5.9795036e-08  2.6050863e-08  0              5.9795036e-08  8.58459e-08    0              5.9795036e-08  0              0              0            
    370000   5.580253e-08   3.0035351e-08  0              5.580253e-08   8.5837881e-08  0              5.580253e-08   0              0              0            
    371000   5.9341605e-08  2.8026185e-08  0              5.9341605e-08  8.736779e-08   0              5.9341605e-08  0              0              0            
    372000   6.104528e-08   3.3929207e-08  0              6.104528e-08   9.4974487e-08  0              6.104528e-08   0              0              0            
    373000   7.0636722e-08  3.5646849e-08  0              7.0636722e-08  1.0628357e-07  0              7.0636722e-08  0              0              0            
    374000   7.2470031e-08  4.1421066e-08  0              7.2470031e-08  1.138911e-07   0              7.2470031e-08  0              0              0            
    375000   7.9015471e-08  4.2442241e-08  0              7.9015471e-08  1.2145771e-07  0              7.9015471e-08  0              0              0            
    376000   8.7785598e-08  4.5520865e-08  0              8.7785598e-08  1.3330646e-07  0              8.7785598e-08  0              0              0            
    377000   1.0029048e-07  4.8510115e-08  0              1.0029048e-07  1.4880059e-07  0              1.0029048e-07  0              0              0            
    378000   1.1653416e-07  4.6320292e-08  0              1.1653416e-07  1.6285446e-07  0              1.1653416e-07  0              0              0            
    379000   1.2420947e-07  4.8409656e-08  0              1.2420947e-07  1.7261913e-07  0              1.2420947e-07  0              0              0            
    380000   1.3971425e-07  4.2206255e-08  0              1.3971425e-07  1.8192051e-07  0              1.3971425e-07  0              0              0            
    381000   1.5251576e-07  4.2249243e-08  0              1.5251576e-07  1.94765e-07    0              1.5251576e-07  0              0              0            
    382000   1.7213295e-07  3.448918e-08   0              1.7213295e-07  2.0662213e-07  0              1.7213295e-07  0              0              0            
    383000   1.7727168e-07  3.4307201e-08  0              1.7727168e-07  2.1157888e-07  0              1.7727168e-07  0              0              0            
    384000   1.8524317e-07  2.7994279e-08  0              1.8524317e-07  2.1323745e-07  0              1.8524317e-07  0              0              0            
    385000   1.8564583e-07  3.1353839e-08  0              1.8564583e-07  2.1699967e-07  0              1.8564583e-07  0              0              0            
    386000   1.8915366e-07  2.9119631e-08  0              1.8915366e-07  2.1827329e-07  0              1.8915366e-07  0              0              0            
    387000   1.7573773e-07  3.6338076e-08  0              1.7573773e-07  2.120758e-07   0              1.7573773e-07  0              0              0            
    388000   1.6492109e-07  3.7724804e-08  0              1.6492109e-07  2.026459e-07   0              1.6492109e-07  0              0              0            
    389000   1.4977905e-07  4.5417529e-08  0              1.4977905e-07  1.9519658e-07  0              1.4977905e-07  0              0              0            
    390000   1.397892e-07   4.7883166e-08  0              1.397892e-07   1.8767237e-07  0              1.397892e-07   0              0              0            
    391000   1.2566464e-07  5.0555243e-08  0              1.2566464e-07  1.7621988e-07  0              1.2566464e-07  0              0              0            
    392000   1.0739485e-07  5.3940519e-08  0              1.0739485e-07  1.6133537e-07  0              1.0739485e-07  0              0              0            
    393000   9.503501e-08   5.1588261e-08  0              9.503501e-08   1.4662327e-07  0              9.503501e-08   0              0              0            
    394000   8.4361316e-08  5.0441382e-08  0              8.4361316e-08  1.348027e-07   0              8.4361316e-08  0              0              0            
    395000   7.6474571e-08  4.9409282e-08  0              7.6474571e-08  1.2588385e-07  0              7.6474571e-08  0              0              0            
    396000   7.5114661e-08  4.2496679e-08  0              7.5114661e-08  1.1761134e-07  0              7.5114661e-08  0              0              0            
    397000   6.3867562e-08  4.2775776e-08  0              6.3867562e-08  1.0664334e-07  0              6.3867562e-08  0              0              0            
    398000   6.1738251e-08  3.6532561e-08  0              6.1738251e-08  9.8270812e-08  0              6.1738251e-08  0              0              0            
    399000   5.8917513e-08  3.5801437e-08  0              5.8917513e-08  9.471895e-08   0              5.8917513e-08  0              0              0            
    400000   5.7945374e-08  3.7797132e-08  0              5.7945374e-08  9.5742506e-08  0              5.7945374e-08  0              0              0            
    401000   6.1670263e-08  3.568438e-08   0              6.1670263e-08  9.7354642e-08  0              6.1670263e-08  0              0              0            
    402000   5.9333809e-08  3.8906738e-08  0              5.9333809e-08  9.8240547e-08  0              5.9333809e-08  0              0              0            
    403000   6.3592509e-08  3.9435999e-08  0              6.3592509e-08  1.0302851e-07  0              6.3592509e-08  0              0              0            
    404000   6.6576921e-08  4.6002016e-08  0              6.6576921e-08  1.1257894e-07  0              6.6576921e-08  0              0              0            
    405000   7.3651191e-08  5.1910355e-08  0              7.3651191e-08  1.2556155e-07  0              7.3651191e-08  0              0              0            
    406000   8.2139708e-08  5.6145892e-08  0              8.2139708e-08  1.382856e-07   0              8.2139708e-08  0              0              0            
    407000   9.0182221e-08  5.9588343e-08  0              9.0182221e-08  1.4977056e-07  0              9.0182221e-08  0              0              0            
    408000   1.0252162e-07  6.0356556e-08  0              1.0252162e-07  1.6287817e-07  0              1.0252162e-07  0              0              0            
    409000   1.1641679e-07  6.1943346e-08  0              1.1641679e-07  1.7836014e-07  0              1.1641679e-07  0              0              0            
    410000   1.329177e-07   6.2430976e-08  0              1.329177e-07   1.9534868e-07  0              1.329177e-07   0              0              0            
    411000   1.5334338e-07  5.7989978e-08  0              1.5334338e-07  2.1133336e-07  0              1.5334338e-07  0              0              0            
    412000   1.6949475e-07  5.4272347e-08  0              1.6949475e-07  2.237671e-07   0              1.6949475e-07  0              0              0            
    413000   1.8054193e-07  5.1566065e-08  0              1.8054193e-07  2.32108e-07    0              1.8054193e-07  0              0              0            
    414000   1.9272906e-07  4.5508031e-08  0              1.9272906e-07  2.3823709e-07  0              1.9272906e-07  0              0              0            
    415000   1.9844053e-07  4.5474864e-08  0              1.9844053e-07  2.4391539e-07  0              1.9844053e-07  0              0              0            
    416000   2.0162094e-07  4.6175996e-08  0              2.0162094e-07  2.4779694e-07  0              2.0162094e-07  0              0              0            
    417000   1.992937e-07   4.7603142e-08  0              1.992937e-07   2.4689684e-07  0              1.992937e-07   0              0              0            
    418000   1.8535217e-07  5.4978672e-08  0              1.8535217e-07  2.4033084e-07  0              1.8535217e-07  0              0              0            
    419000   1.7016764e-07  6.0055693e-08  0              1.7016764e-07  2.3022333e-07  0              1.7016764e-07  0              0              0            
    420000   1.5478887e-07  6.4682029e-08  0              1.5478887e-07  2.194709e-07   0              1.5478887e-07  0              0              0            
    421000   1.3828151e-07  7.0921969e-08  0              1.3828151e-07  2.0920348e-07  0              1.3828151e-07  0              0              0            
    422000   1.2551664e-07  7.3162723e-08  0              1.2551664e-07  1.9867936e-07  0              1.2551664e-07  0              0              0            
    423000   1.1413482e-07  7.2688122e-08  0              1.1413482e-07  1.8682294e-07  0              1.1413482e-07  0              0              0            
    424000   9.9218175e-08  7.3826435e-08  0              9.9218175e-08  1.7304461e-07  0              9.9218175e-08  0              0              0            
    425000   8.7738995e-08  7.115343e-08   0              8.7738995e-08  1.5889243e-07  0              8.7738995e-08  0              0              0            
    426000   8.0608182e-08  6.6369374e-08  0              8.0608182e-08  1.4697756e-07  0              8.0608182e-08  0              0              0            
    427000   7.407756e-08   6.4313429e-08  0              7.407756e-08   1.3839099e-07  0              7.407756e-08   0              0              0            
    428000   7.05588e-08    6.2601937e-08  0              7.05588e-08    1.3316074e-07  0              7.05588e-08    0              0              0            
    429000   6.9013493e-08  5.9855538e-08  0              6.9013493e-08  1.2886903e-07  0              6.9013493e-08  0              0              0            
    430000   6.6247265e-08  5.9142197e-08  0              6.6247265e-08  1.2538946e-07  0              6.6247265e-08  0              0              0            
    431000   6.7495448e-08  5.824718e-08   0              6.7495448e-08  1.2574263e-07  0              6.7495448e-08  0              0              0            
    432000   6.7489067e-08  6.2874613e-08  0              6.7489067e-08  1.3036368e-07  0              6.7489067e-08  0              0              0            
    433000   7.3756043e-08  6.4616572e-08  0              7.3756043e-08  1.3837262e-07  0              7.3756043e-08  0              0              0            
    434000   7.4378459e-08  7.2337942e-08  0              7.4378459e-08  1.467164e-07   0              7.4378459e-08  0              0              0            
    435000   8.1741325e-08  7.4960837e-08  0              8.1741325e-08  1.5670216e-07  0              8.1741325e-08  0              0              0            
    436000   9.0240098e-08  7.9639613e-08  0              9.0240098e-08  1.6987971e-07  0              9.0240098e-08  0              0              0            
    437000   9.977457e-08   8.6208016e-08  0              9.977457e-08   1.8598259e-07  0              9.977457e-08   0              0              0            
    438000   1.1374182e-07  9.0128269e-08  0              1.1374182e-07  2.0387009e-07  0              1.1374182e-07  0              0              0            
    439000   1.3105675e-07  9.0261832e-08  0              1.3105675e-07  2.2131858e-07  0              1.3105675e-07  0              0              0            
    440000   1.4540372e-07  9.1730748e-08  0              1.4540372e-07  2.3713447e-07  0              1.4540372e-07  0              0              0            
    441000   1.60274e-07    9.0978661e-08  0              1.60274e-07    2.5125266e-07  0              1.60274e-07    0              0              0            
[...]
   1831000   1.2319519e-07  2.5913208e-08  0              1.2319519e-07  1.491084e-07   0              1.2319519e-07  0              0              0            
   1832000   1.2921605e-07  2.7188464e-08  0              1.2921605e-07  1.5640452e-07  0              1.2921605e-07  0              0              0            
   1833000   1.3710273e-07  2.3683818e-08  0              1.3710273e-07  1.6078655e-07  0              1.3710273e-07  0              0              0            
   1834000   1.4175256e-07  1.7815883e-08  0              1.4175256e-07  1.5956844e-07  0              1.4175256e-07  0              0              0            
   1835000   1.2906968e-07  2.7927188e-08  0              1.2906968e-07  1.5699687e-07  0              1.2906968e-07  0              0              0            
   1836000   1.194812e-07   3.0571005e-08  0              1.194812e-07   1.5005221e-07  0              1.194812e-07   0              0              0            
   1837000   1.1213258e-07  2.8165148e-08  0              1.1213258e-07  1.4029773e-07  0              1.1213258e-07  0              0              0            
   1838000   1.0323009e-07  2.7246711e-08  0              1.0323009e-07  1.304768e-07   0              1.0323009e-07  0              0              0            
   1839000   9.1845558e-08  2.6341232e-08  0              9.1845558e-08  1.1818679e-07  0              9.1845558e-08  0              0              0            
   1840000   8.2581698e-08  2.5588205e-08  0              8.2581698e-08  1.081699e-07   0              8.2581698e-08  0              0              0            
   1841000   7.4067959e-08  2.3627686e-08  0              7.4067959e-08  9.7695645e-08  0              7.4067959e-08  0              0              0            
   1842000   6.8176782e-08  2.2178255e-08  0              6.8176782e-08  9.0355037e-08  0              6.8176782e-08  0              0              0            
   1843000   6.5428258e-08  1.861117e-08   0              6.5428258e-08  8.4039427e-08  0              6.5428258e-08  0              0              0            
   1844000   6.519178e-08   1.6122991e-08  0              6.519178e-08   8.1314771e-08  0              6.519178e-08   0              0              0            
   1845000   6.7009864e-08  1.3117469e-08  0              6.7009864e-08  8.0127333e-08  0              6.7009864e-08  0              0              0            
   1846000   7.017579e-08   1.2586659e-08  0              7.017579e-08   8.2762449e-08  0              7.017579e-08   0              0              0            
   1847000   6.9788279e-08  1.7103697e-08  0              6.9788279e-08  8.6891976e-08  0              6.9788279e-08  0              0              0            
   1848000   6.3611886e-08  3.0595745e-08  0              6.3611886e-08  9.4207632e-08  0              6.3611886e-08  0              0              0            
   1849000   7.626285e-08   2.7035887e-08  0              7.626285e-08   1.0329874e-07  0              7.626285e-08   0              0              0            
   1850000   9.3847084e-08  1.9617277e-08  0              9.3847084e-08  1.1346436e-07  0              9.3847084e-08  0              0              0            
   1851000   8.6656924e-08  3.820256e-08   0              8.6656924e-08  1.2485948e-07  0              8.6656924e-08  0              0              0            
   1852000   1.186476e-07   1.765555e-08   0              1.186476e-07   1.3630315e-07  0              1.186476e-07   0              0              0            
   1853000   1.1339195e-07  3.2743428e-08  0              1.1339195e-07  1.4613537e-07  0              1.1339195e-07  0              0              0            
   1854000   1.4202217e-07  1.177005e-08   0              1.4202217e-07  1.5379222e-07  0              1.4202217e-07  0              0              0            
   1855000   1.5098076e-07  7.451364e-09   0              1.5098076e-07  1.5843212e-07  0              1.5098076e-07  0              0              0            
   1856000   1.4298405e-07  1.6374283e-08  0              1.4298405e-07  1.5935834e-07  0              1.4298405e-07  0              0              0            
   1857000   1.3132585e-07  2.5086411e-08  0              1.3132585e-07  1.5641226e-07  0              1.3132585e-07  0              0              0            
   1858000   1.1873098e-07  3.1272807e-08  0              1.1873098e-07  1.5000378e-07  0              1.1873098e-07  0              0              0            
   1859000   1.0668916e-07  3.429327e-08   0              1.0668916e-07  1.4098244e-07  0              1.0668916e-07  0              0              0            
   1860000   9.7267999e-08  3.3131651e-08  0              9.7267999e-08  1.3039965e-07  0              9.7267999e-08  0              0              0            
   1861000   9.1526327e-08  2.7799911e-08  0              9.1526327e-08  1.1932624e-07  0              9.1526327e-08  0              0              0            
   1862000   8.8401632e-08  2.0315154e-08  0              8.8401632e-08  1.0871679e-07  0              8.8401632e-08  0              0              0            
   1863000   8.5630726e-08  1.3718358e-08  0              8.5630726e-08  9.9349085e-08  0              8.5630726e-08  0              0              0            
   1864000   8.2055281e-08  9.7528884e-09  0              8.2055281e-08  9.1808169e-08  0              8.2055281e-08  0              0              0            
   1865000   7.7583455e-08  8.9306064e-09  0              7.7583455e-08  8.6514062e-08  0              7.7583455e-08  0              0              0            
   1866000   7.1041788e-08  1.2703773e-08  0              7.1041788e-08  8.374556e-08   0              7.1041788e-08  0              0              0            
   1867000   6.1012248e-08  2.2649611e-08  0              6.1012248e-08  8.3661859e-08  0              6.1012248e-08  0              0              0            
   1868000   6.2345009e-08  2.3957249e-08  0              6.2345009e-08  8.6302258e-08  0              6.2345009e-08  0              0              0            
   1869000   7.9859048e-08  1.163645e-08   0              7.9859048e-08  9.1495498e-08  0              7.9859048e-08  0              0              0            
   1870000   7.0938561e-08  2.7928042e-08  0              7.0938561e-08  9.8866602e-08  0              7.0938561e-08  0              0              0            
   1871000   8.5276272e-08  2.2751054e-08  0              8.5276272e-08  1.0802733e-07  0              8.5276272e-08  0              0              0            
   1872000   8.5355106e-08  3.3559316e-08  0              8.5355106e-08  1.1891442e-07  0              8.5355106e-08  0              0              0            
   1873000   1.0703339e-07  2.3767396e-08  0              1.0703339e-07  1.3080078e-07  0              1.0703339e-07  0              0              0            
   1874000   1.093636e-07   3.2577739e-08  0              1.093636e-07   1.4194134e-07  0              1.093636e-07   0              0              0            
   1875000   1.1974684e-07  3.2603209e-08  0              1.1974684e-07  1.5235005e-07  0              1.1974684e-07  0              0              0            
   1876000   1.3712396e-07  2.3879535e-08  0              1.3712396e-07  1.610035e-07   0              1.3712396e-07  0              0              0            
   1877000   1.4804497e-07  1.7777679e-08  0              1.4804497e-07  1.6582265e-07  0              1.4804497e-07  0              0              0            
   1878000   1.5043501e-07  1.7868751e-08  0              1.5043501e-07  1.6830376e-07  0              1.5043501e-07  0              0              0            
   1879000   1.4517128e-07  2.0632786e-08  0              1.4517128e-07  1.6580407e-07  0              1.4517128e-07  0              0              0            
   1880000   1.3606469e-07  2.5291141e-08  0              1.3606469e-07  1.6135583e-07  0              1.3606469e-07  0              0              0            
   1881000   1.2436181e-07  2.8454459e-08  0              1.2436181e-07  1.5281627e-07  0              1.2436181e-07  0              0              0            
   1882000   1.1287223e-07  3.1249174e-08  0              1.1287223e-07  1.4412141e-07  0              1.1287223e-07  0              0              0            
   1883000   1.0021684e-07  3.2778289e-08  0              1.0021684e-07  1.3299512e-07  0              1.0021684e-07  0              0              0            
   1884000   8.8197863e-08  3.5481818e-08  0              8.8197863e-08  1.2367968e-07  0              8.8197863e-08  0              0              0            
   1885000   7.7514324e-08  3.6256652e-08  0              7.7514324e-08  1.1377098e-07  0              7.7514324e-08  0              0              0            
   1886000   6.7928566e-08  3.8315174e-08  0              6.7928566e-08  1.0624374e-07  0              6.7928566e-08  0              0              0            
   1887000   6.7430462e-08  3.3332616e-08  0              6.7430462e-08  1.0076308e-07  0              6.7430462e-08  0              0              0            
   1888000   6.9692544e-08  2.6637481e-08  0              6.9692544e-08  9.6330025e-08  0              6.9692544e-08  0              0              0            
   1889000   6.8207289e-08  2.7998405e-08  0              6.8207289e-08  9.6205694e-08  0              6.8207289e-08  0              0              0            
   1890000   6.300302e-08   3.3759282e-08  0              6.300302e-08   9.6762302e-08  0              6.300302e-08   0              0              0            
   1891000   6.7364963e-08  3.2979689e-08  0              6.7364963e-08  1.0034465e-07  0              6.7364963e-08  0              0              0            
   1892000   7.5538794e-08  3.1915559e-08  0              7.5538794e-08  1.0745435e-07  0              7.5538794e-08  0              0              0            
   1893000   7.5919729e-08  3.8464885e-08  0              7.5919729e-08  1.1438461e-07  0              7.5919729e-08  0              0              0            
   1894000   8.1711339e-08  4.2580328e-08  0              8.1711339e-08  1.2429167e-07  0              8.1711339e-08  0              0              0            
   1895000   9.5917767e-08  4.0462721e-08  0              9.5917767e-08  1.3638049e-07  0              9.5917767e-08  0              0              0            
   1896000   1.0138526e-07  4.5189067e-08  0              1.0138526e-07  1.4657433e-07  0              1.0138526e-07  0              0              0            
   1897000   1.1441856e-07  4.3368607e-08  0              1.1441856e-07  1.5778717e-07  0              1.1441856e-07  0              0              0            
   1898000   1.2675587e-07  4.2989754e-08  0              1.2675587e-07  1.6974562e-07  0              1.2675587e-07  0              0              0            
   1899000   1.3486625e-07  4.2815267e-08  0              1.3486625e-07  1.7768151e-07  0              1.3486625e-07  0              0              0            
   1900000   1.4644235e-07  3.6205291e-08  0              1.4644235e-07  1.8264764e-07  0              1.4644235e-07  0              0              0            
   1901000   1.4824446e-07  3.8584202e-08  0              1.4824446e-07  1.8682866e-07  0              1.4824446e-07  0              0              0            
   1902000   1.497734e-07   3.9190897e-08  0              1.497734e-07   1.889643e-07   0              1.497734e-07   0              0              0            
   1903000   1.425273e-07   4.3221659e-08  0              1.425273e-07   1.8574896e-07  0              1.425273e-07   0              0              0            
   1904000   1.3467574e-07  4.418252e-08   0              1.3467574e-07  1.7885826e-07  0              1.3467574e-07  0              0              0            
   1905000   1.2434062e-07  4.7306991e-08  0              1.2434062e-07  1.7164761e-07  0              1.2434062e-07  0              0              0            
   1906000   1.1147404e-07  5.3412841e-08  0              1.1147404e-07  1.6488688e-07  0              1.1147404e-07  0              0              0            
   1907000   1.0307424e-07  5.3315319e-08  0              1.0307424e-07  1.5638956e-07  0              1.0307424e-07  0              0              0            
   1908000   9.3639565e-08  5.2086244e-08  0              9.3639565e-08  1.4572581e-07  0              9.3639565e-08  0              0              0            
   1909000   8.7681939e-08  4.9498678e-08  0              8.7681939e-08  1.3718062e-07  0              8.7681939e-08  0              0              0            
   1910000   7.8208257e-08  5.3494936e-08  0              7.8208257e-08  1.3170319e-07  0              7.8208257e-08  0              0              0            
   1911000   7.9536252e-08  4.7572465e-08  0              7.9536252e-08  1.2710872e-07  0              7.9536252e-08  0              0              0            
   1912000   7.3124612e-08  4.8590603e-08  0              7.3124612e-08  1.2171521e-07  0              7.3124612e-08  0              0              0            
   1913000   7.401941e-08   4.5485141e-08  0              7.401941e-08   1.1950455e-07  0              7.401941e-08   0              0              0            
   1914000   7.0377781e-08  5.1001579e-08  0              7.0377781e-08  1.2137936e-07  0              7.0377781e-08  0              0              0            
   1915000   7.8000492e-08  4.734756e-08   0              7.8000492e-08  1.2534805e-07  0              7.8000492e-08  0              0              0            
   1916000   7.4709337e-08  5.3674655e-08  0              7.4709337e-08  1.2838399e-07  0              7.4709337e-08  0              0              0            
   1917000   8.138353e-08   5.2339433e-08  0              8.138353e-08   1.3372296e-07  0              8.138353e-08   0              0              0            
   1918000   8.5147448e-08  5.7495481e-08  0              8.5147448e-08  1.4264293e-07  0              8.5147448e-08  0              0              0            
   1919000   9.210065e-08   6.1834834e-08  0              9.210065e-08   1.5393548e-07  0              9.210065e-08   0              0              0            
   1920000   1.0100597e-07  6.3669995e-08  0              1.0100597e-07  1.6467596e-07  0              1.0100597e-07  0              0              0            
   1921000   1.0926316e-07  6.4371033e-08  0              1.0926316e-07  1.7363419e-07  0              1.0926316e-07  0              0              0            
   1922000   1.206345e-07   6.27888e-08    0              1.206345e-07   1.834233e-07   0              1.206345e-07   0              0              0            
   1923000   1.3082023e-07  6.3797049e-08  0              1.3082023e-07  1.9461728e-07  0              1.3082023e-07  0              0              0            
   1924000   1.4236938e-07  6.3824439e-08  0              1.4236938e-07  2.0619382e-07  0              1.4236938e-07  0              0              0            
   1925000   1.5535402e-07  6.055252e-08   0              1.5535402e-07  2.1590654e-07  0              1.5535402e-07  0              0              0            
   1926000   1.61501e-07    6.0410671e-08  0              1.61501e-07    2.2191167e-07  0              1.61501e-07    0              0              0            
   1927000   1.6164768e-07  6.2518784e-08  0              1.6164768e-07  2.2416647e-07  0              1.6164768e-07  0              0              0            
   1928000   1.633243e-07   6.1187315e-08  0              1.633243e-07   2.2451162e-07  0              1.633243e-07   0              0              0            
   1929000   1.619397e-07   6.304531e-08   0              1.619397e-07   2.2498501e-07  0              1.619397e-07   0              0              0            
   1930000   1.5806273e-07  6.7596158e-08  0              1.5806273e-07  2.2565889e-07  0              1.5806273e-07  0              0              0            
   1931000   1.5618343e-07  6.8553164e-08  0              1.5618343e-07  2.2473659e-07  0              1.5618343e-07  0              0              0            
   1932000   1.4981774e-07  7.0850106e-08  0              1.4981774e-07  2.2066784e-07  0              1.4981774e-07  0              0              0            
   1933000   1.3811119e-07  7.5444358e-08  0              1.3811119e-07  2.1355555e-07  0              1.3811119e-07  0              0              0            
   1934000   1.2791935e-07  7.7144828e-08  0              1.2791935e-07  2.0506418e-07  0              1.2791935e-07  0              0              0            
   1935000   1.2053428e-07  7.676812e-08   0              1.2053428e-07  1.973024e-07   0              1.2053428e-07  0              0              0            
   1936000   1.1295173e-07  7.8575323e-08  0              1.1295173e-07  1.9152705e-07  0              1.1295173e-07  0              0              0            
   1937000   1.0722829e-07  8.0343804e-08  0              1.0722829e-07  1.875721e-07   0              1.0722829e-07  0              0              0            
   1938000   1.0484183e-07  7.9577437e-08  0              1.0484183e-07  1.8441927e-07  0              1.0484183e-07  0              0              0            
   1939000   1.018102e-07   7.8568946e-08  0              1.018102e-07   1.8037914e-07  0              1.018102e-07   0              0              0            
   1940000   9.5009276e-08  8.0314081e-08  0              9.5009276e-08  1.7532336e-07  0              9.5009276e-08  0              0              0            
   1941000   9.1859846e-08  7.9318321e-08  0              9.1859846e-08  1.7117817e-07  0              9.1859846e-08  0              0              0            
   1942000   9.1187926e-08  7.8330096e-08  0              9.1187926e-08  1.6951802e-07  0              9.1187926e-08  0              0              0            
   1943000   9.0844701e-08  8.016775e-08   0              9.0844701e-08  1.7101245e-07  0              9.0844701e-08  0              0              0            
   1944000   9.2132532e-08  8.3227991e-08  0              9.2132532e-08  1.7536052e-07  0              9.2132532e-08  0              0              0            
   1945000   9.6870317e-08  8.4626786e-08  0              9.6870317e-08  1.814971e-07   0              9.6870317e-08  0              0              0            
   1946000   1.0166801e-07  8.5534015e-08  0              1.0166801e-07  1.8720203e-07  0              1.0166801e-07  0              0              0            
   1947000   1.0266279e-07  8.9604571e-08  0              1.0266279e-07  1.9226736e-07  0              1.0266279e-07  0              0              0            
   1948000   1.0531261e-07  9.226645e-08   0              1.0531261e-07  1.9757906e-07  0              1.0531261e-07  0              0              0            
   1949000   1.1086204e-07  9.3637832e-08  0              1.1086204e-07  2.0449987e-07  0              1.1086204e-07  0              0              0            
   1950000   1.1765576e-07  9.6156129e-08  0              1.1765576e-07  2.1381189e-07  0              1.1765576e-07  0              0              0            
   1951000   1.2533202e-07  1.0010678e-07  0              1.2533202e-07  2.254388e-07   0              1.2533202e-07  0              0              0            
   1952000   1.3593737e-07  1.0232328e-07  0              1.3593737e-07  2.3826065e-07  0              1.3593737e-07  0              0              0            
   1953000   1.4813106e-07  1.0244697e-07  0              1.4813106e-07  2.5057803e-07  0              1.4813106e-07  0              0              0            
