LAMMPS (22 Jul 2025 - Update 2)
  using 4 OpenMP thread(s) per MPI task
Open of file C:\Users\Palash\AppData\Local\LAMMPS 64-bit 22Jul2025-MSMPI with Python\plugins\helloplugin.so failed: 
Loaded 0 plugins from C:\Users\Palash\AppData\Local\LAMMPS 64-bit 22Jul2025-MSMPI with Python\plugins
# Flexible granular chain simulation in LAMMPS

units       si
atom_style hybrid sphere angle
WARNING: Atom style hybrid defines both, per-type and per-atom masses; both must be set, but only per-atom masses will be used (C:\Users\runneradmin\AppData\Local\Temp\tmp675km_ty\build\_deps\lammps-src\src\atom_vec_hybrid.cpp:132)
boundary    f f f

special_bonds lj/coul 1.0 1.0 1.0
# special_bonds none

# Read the atom and bond data from the data file.
# read_data chain_datas/chain.data
read_data chain_datas/N4_chain.data
Reading data file ...
  orthogonal box = (-0.05 -0.05 0) to (0.05 0.05 0.1)
  1 by 1 by 1 MPI processor grid
WARNING: Atom style in data file hybrid sphere angle differs from currently defined atom style hybrid (C:\Users\runneradmin\AppData\Local\Temp\tmp675km_ty\build\_deps\lammps-src\src\read_data.cpp:727)
  reading atoms ...
  4 atoms
  scanning bonds ...
  1 = max bonds/atom
  scanning angles ...
  1 = max angles/atom
  orthogonal box = (-0.05 -0.05 0) to (0.05 0.05 0.1)
  1 by 1 by 1 MPI processor grid
  reading bonds ...
  3 bonds
  reading angles ...
  2 angles
Finding 1-2 1-3 1-4 neighbors ...
  special bond factors lj:    1        1        1       
  special bond factors coul:  1        1        1       
     2 = max # of 1-2 neighbors
     2 = max # of special neighbors
  special bonds CPU = 0.002 seconds
  read_data CPU = 0.014 seconds
# read_data chain_datas/N4_chain.data

# Ensure spherical properties are consistent (overrides data if needed)
# mm
# set type 1 diameter 0.002
# kg/m3
# set type 1 density 708.47
velocity all set 0.0 0.0 0.0

# Pin the first three beads in space (anchor group) and integrate only the rest
group anchors id 1 2
2 atoms in group anchors
group mobile subtract all anchors
2 atoms in group mobile

velocity anchors set 0.0 0.0 0.0
set group anchors omega 0.0 0.0 0.0
Setting atom values ...
  2 settings made for omega

# Optional: create a unique output directory per run (portable on Windows PowerShell)
# shell powershell -NoProfile -Command "if (!(Test-Path 'post')) {New-Item -ItemType Directory -Path 'post' ^| Out-Null}; $counterPath = 'post/run_counter.txt'; if (!(Test-Path $counterPath)) {Set-Content -Path $counterPath -Value '0'}; $count = [int](Get-Content -Path $counterPath); $next = $count + 1; Set-Content -Path $counterPath -Value $next; $outdir = Join-Path 'post' ('run_{0:D4}' -f $next); New-Item -ItemType Directory -Path $outdir -Force ^| Out-Null; $forward = $outdir -replace '\\','/'; Set-Content -Path 'post/current_run.txt' -Value $forward; Set-Content -Path 'post/current_run.lmp' -Value ('variable outdir string ' + $forward);"
# include post/current_run.lmp

# Ensure a predictable output directory and set outdir
shell if not exist post_chain_flop mkdir post_chain_flop
shell if not exist post_chain_flop\current mkdir post_chain_flop\current
shell if not exist post_chain_flop\current\bond mkdir post_chain_flop\current\bond
shell if not exist post_chain_flop\current\angle mkdir post_chain_flop\current\angle
shell if not exist post_chain_flop\current\restart mkdir post_chain_flop\current\restart
# clear dir if it exist
shell del /Q post_chain_flop\current\*
variable outdir string post_chain_flop/current

#
variable r_max equal 0.0005 #pot center to center
# Theta limit in Radians (140 degrees * PI / 180)
variable theta_lim equal 2.4435
# Stiffnesses
variable knt2   equal 1.0e6  # High stiffness for bond limit
variable ktheta equal 1.0e6   # Stiffness for angle limit
# smoothing widths (tune as needed)
variable w   equal 1.0e-4    # smoothing length (m) 0.1 mm
variable delta equal 1.0e-4    # smoothing angle (rad) ~ 1.15 deg

# Granular pair style parameters
# normal contact
variable k_n equal 1e6 # Normal stiffness
variable nu_n0 equal 50.0 # damping prefactor or a coefficient of restitution
# rolling
variable k_roll equal 1.0e6   # Rolling Friction Stiffness
variable gamma_roll equal 5000 # Rolling Friction Damping
variable mu_roll equal 0.3 # Rolling Friction Coefficient
# tangential
variable k_t equal 1.0e6   # Tangential stiffness coefficient.
variable x_gamma_t equal 1.0 # dimensionless multiplier for the normal damping
variable mu_s equal 0.3 # is the tangential (or sliding) friction coefficient


# Apply gravity perpendicular to the chain (chain aligned with +z, gravity along +x)
fix grav mobile gravity 9.81 vector 1 0 0
# --- WALL DEFINITIONS ---
# You must define X, Y, and Z walls separately.

# 1. X-Walls (Left and Right: -0.02 to 0.02)
fix xwalls all wall/gran granular hertz/material 1.0e8 0.3 5e-4     tangential linear_history 300.0 1.0 0.1     rolling sds 200.0 100.0 0.1     twisting marshall     xplane -0.02 0.02

# 2. Y-Walls (Front and Back: -0.01 to 0.01)
fix ywalls all wall/gran granular hertz/material 1.0e8 0.3 5e-4     tangential linear_history 300.0 1.0 0.1     rolling sds 200.0 100.0 0.1     twisting marshall     yplane -0.01 0.01

# 3. Z-Walls (Floor and Ceiling: 0.00 to 0.08)
fix zwalls all wall/gran granular hertz/material 1.0e8 0.3 5e-4     tangential linear_history 300.0 1.0 0.1     rolling sds 200.0 100.0 0.1     twisting marshall     zplane 0.00 0.08

#
comm_modify vel yes cutoff 0.004

# define particle - particle interactions
pair_style  granular
# k_n, nu_n0 # k_t, x_(gamma,t), mu_s # k_roll, gamma_roll, mu_roll
pair_coeff  1 1 hooke 1e6 50.0             tangential linear_history 1.0e6 1.0 0.3             rolling sds 1.0e6 5000 0.3             twisting marshall

# BOND: Lepton
# If r > r_max (0.003): Apply harmonic penalty k/2 * (r - r_max)^2
# If r <= r_max: Force is 0 (slack chain)
# Note: Repulsion for r < 0.002 is handled by pair_style granular, not this bond.
bond_style lepton no_offset
# bond_coeff 1 1.0 "0.5 * knt2 * (r - r_max)^2 * step(r - r_max); knt2=v_knt2; r_max=v_r_max"
bond_coeff 1 0.003 "0.5 * knt2 * (r - r_max)^2 * 0.5 * (1 + tanh((r - r_max)/w)); knt2=v_knt2; r_max=v_r_max; w=v_w"

# ANGLE: Lepton
# theta variable is in Radians.
# If theta < theta_lim: Apply harmonic penalty k/2 * (theta - theta_lim)^2
# If theta >= theta_lim: Force is 0 (free bending)
angle_style lepton no_offset
# angle_coeff 1 1.0 "0.5 * ktheta * (theta - t_lim)^2 * step(t_lim - theta); ktheta=v_ktheta; t_lim=v_theta_lim"
angle_coeff 1 0 "0.5 * ktheta * (theta - t_lim)^2 * 0.5 * (1 + tanh((t_lim - theta)/w_a)); ktheta=v_ktheta; t_lim=v_theta_lim; w_a=v_delta"

# Replaces the missing internal link friction
group chain_particles type 1
4 atoms in group chain_particles
fix 1 chain_particles viscous 0.1

# Use the standard NVE integrator for the mobile beads only.
fix integr mobile nve/sphere

# Set up neighbor list parameters (wider skin and higher per-atom quota prevent overflow)
neighbor 0.004 bin # skin_width type
neigh_modify delay 0 every 1 check yes

# COMPUTE BOND AND ANGLE DATA
# Calculate bond distance and energy
compute 1 chain_particles bond/local dist engpot force
# Calculate angle theta and energy
compute 2 chain_particles angle/local theta eng

# Set a conservative timestep for the stiff bonded chain.
timestep 1.0e-6

# === 4. OUTPUTS & RUN ===
# Output thermodynamic data every 10000 timesteps.
thermo 10000
thermo_style custom step pe ke ebond eangle etotal ecoul emol edihed epair evdwl

# Output a dump file of the sphere coordinates for visualization (e.g., in ParaView)
dump 1 all custom 1000 ${outdir}/chain_*.dump id type x y z vx vy vz fx fy fz diameter mass
dump 1 all custom 1000 post_chain_flop/current/chain_*.dump id type x y z vx vy vz fx fy fz diameter mass
dump_modify 1 sort id
dump 2 all local 1000 ${outdir}/bond/bond_*.dump index c_1[1] c_1[2] c_1[3]
dump 2 all local 1000 post_chain_flop/current/bond/bond_*.dump index c_1[1] c_1[2] c_1[3]
dump 3 all local 1000 ${outdir}/angle/angle_*.dump index c_2[1] c_2[2]
dump 3 all local 1000 post_chain_flop/current/angle/angle_*.dump index c_2[1] c_2[2]

# Save a binary restart file every 1,000,000 steps
# The '*' is replaced by the timestep number
restart 100000 ${outdir}/restart/restart.*.bin
restart 100000 post_chain_flop/current/restart/restart.*.bin

run 10000000  # 1e7 timesteps 1 second
Generated 0 of 0 mixed pair_coeff terms from geometric mixing rule
WARNING: Communication cutoff 0.006 is shorter than a bond length based estimate of 0.0085. This may lead to errors. (C:\Users\runneradmin\AppData\Local\Temp\tmp675km_ty\build\_deps\lammps-src\src\comm.cpp:743)
Neighbor list info ...
  update: every = 1 steps, delay = 0 steps, check = yes
  max neighbors/atom: 2000, page size: 100000
  master list distance cutoff = 0.006
  ghost atom cutoff = 0.006
  binsize = 0.003, bins = 34 34 34
  1 neighbor lists, perpetual/occasional/extra = 1 0 0
  (1) pair granular, perpetual
      attributes: half, newton on, size, history
      pair build: half/size/bin/newton
      stencil: half/bin/3d
      bin: standard
WARNING: Communication cutoff 0.006 is shorter than a bond length based estimate of 0.0085. This may lead to errors. (C:\Users\runneradmin\AppData\Local\Temp\tmp675km_ty\build\_deps\lammps-src\src\comm.cpp:743)
WARNING: Communication cutoff adjusted to 0.006 (C:\Users\runneradmin\AppData\Local\Temp\tmp675km_ty\build\_deps\lammps-src\src\comm.cpp:752)
Per MPI rank memory allocation (min/avg/max) = 72.58 | 72.58 | 72.58 Mbytes
   Step         PotEng         KinEng         E_bond        E_angle         TotEng         E_coul         E_mol         E_dihed         E_pair         E_vdwl    
         0   3.0917305e-09  0              3.0917305e-09  0              3.0917305e-09  0              3.0917305e-09  0              0              0            
     10000   3.0622922e-09  2.5182278e-10  3.0622922e-09  0              3.3141149e-09  0              3.0622922e-09  0              0              0            
     20000   3.0400955e-09  2.5160733e-10  3.0400955e-09  0              3.2917029e-09  0              3.0400955e-09  0              0              0            
     30000   3.0259423e-09  2.513919e-10   3.0259423e-09  0              3.2773342e-09  0              3.0259423e-09  0              0              0            
     40000   3.0197128e-09  2.5117361e-10  3.0197128e-09  0              3.2708864e-09  0              3.0197128e-09  0              0              0            
     50000   3.0213844e-09  2.5094964e-10  3.0213844e-09  0              3.272334e-09   0              3.0213844e-09  0              0              0            
     60000   3.0310256e-09  2.5071718e-10  3.0310256e-09  0              3.2817428e-09  0              3.0310256e-09  0              0              0            
     70000   3.0487921e-09  2.5047335e-10  3.0487921e-09  0              3.2992655e-09  0              3.0487921e-09  0              0              0            
     80000   3.0749234e-09  2.5021523e-10  3.0749234e-09  0              3.3251386e-09  0              3.0749234e-09  0              0              0            
     90000   3.1097397e-09  2.4993977e-10  3.1097397e-09  0              3.3596795e-09  0              3.1097397e-09  0              0              0            
    100000   3.1536395e-09  2.4964381e-10  3.1536395e-09  0              3.4032834e-09  0              3.1536395e-09  0              0              0            
    110000   3.2070965e-09  2.4932408e-10  3.2070965e-09  0              3.4564206e-09  0              3.2070965e-09  0              0              0            
    120000   3.2706557e-09  2.4897714e-10  3.2706557e-09  0              3.5196329e-09  0              3.2706557e-09  0              0              0            
    130000   3.3449285e-09  2.4859948e-10  3.3449285e-09  0              3.593528e-09   0              3.3449285e-09  0              0              0            
    140000   3.4305862e-09  2.4818745e-10  3.4305862e-09  0              3.6787736e-09  0              3.4305862e-09  0              0              0            
    150000   3.5283509e-09  2.4773738e-10  3.5283509e-09  0              3.7760883e-09  0              3.5283509e-09  0              0              0            
    160000   3.6389849e-09  2.4724557e-10  3.6389849e-09  0              3.8862305e-09  0              3.6389849e-09  0              0              0            
    170000   3.7632759e-09  2.4670839e-10  3.7632759e-09  0              4.0099843e-09  0              3.7632759e-09  0              0              0            
    180000   3.9020205e-09  2.4612236e-10  3.9020205e-09  0              4.1481428e-09  0              3.9020205e-09  0              0              0            
    190000   4.0560049e-09  2.4548419e-10  4.0560049e-09  0              4.3014891e-09  0              4.0560049e-09  0              0              0            
    200000   4.2259829e-09  2.4479096e-10  4.2259829e-09  0              4.4707738e-09  0              4.2259829e-09  0              0              0            
    210000   4.4126528e-09  2.4404012e-10  4.4126528e-09  0              4.6566929e-09  0              4.4126528e-09  0              0              0            
    220000   4.6166351e-09  2.4322963e-10  4.6166351e-09  0              4.8598647e-09  0              4.6166351e-09  0              0              0            
    230000   4.8384509e-09  2.42358e-10    4.8384509e-09  0              5.0808089e-09  0              4.8384509e-09  0              0              0            
    240000   5.0785054e-09  2.4142428e-10  5.0785054e-09  0              5.3199297e-09  0              5.0785054e-09  0              0              0            
    250000   5.3370759e-09  2.4042813e-10  5.3370759e-09  0              5.577504e-09   0              5.3370759e-09  0              0              0            
    260000   5.6143085e-09  2.3936968e-10  5.6143085e-09  0              5.8536781e-09  0              5.6143085e-09  0              0              0            
    270000   5.9102219e-09  2.3824955e-10  5.9102219e-09  0              6.1484715e-09  0              5.9102219e-09  0              0              0            
    280000   6.2247208e-09  2.3706868e-10  6.2247208e-09  0              6.4617895e-09  0              6.2247208e-09  0              0              0            
    290000   6.557615e-09   2.3582825e-10  6.557615e-09   0              6.7934433e-09  0              6.557615e-09   0              0              0            
    300000   6.908643e-09   2.3452961e-10  6.908643e-09   0              7.1431726e-09  0              6.908643e-09   0              0              0            
    310000   7.2774952e-09  2.3317423e-10  7.2774952e-09  0              7.5106694e-09  0              7.2774952e-09  0              0              0            
    320000   7.6638326e-09  2.3176365e-10  7.6638326e-09  0              7.8955962e-09  0              7.6638326e-09  0              0              0            
    330000   8.0672947e-09  2.3029963e-10  8.0672947e-09  0              8.2975943e-09  0              8.0672947e-09  0              0              0            
    340000   8.4874951e-09  2.2878421e-10  8.4874951e-09  0              8.7162793e-09  0              8.4874951e-09  0              0              0            
    350000   8.924e-09      2.2721987e-10  8.924e-09      0              9.1512199e-09  0              8.924e-09      0              0              0            
    360000   9.3762926e-09  2.2560975e-10  9.3762926e-09  0              9.6019024e-09  0              9.3762926e-09  0              0              0            
    370000   9.8437237e-09  2.2395777e-10  9.8437237e-09  0              1.0067682e-08  0              9.8437237e-09  0              0              0            
    380000   1.0325457e-08  2.2226875e-10  1.0325457e-08  0              1.0547726e-08  0              1.0325457e-08  0              0              0            
    390000   1.0820414e-08  2.2054844e-10  1.0820414e-08  0              1.1040962e-08  0              1.0820414e-08  0              0              0            
    400000   1.1327229e-08  2.1880347e-10  1.1327229e-08  0              1.1546032e-08  0              1.1327229e-08  0              0              0            
    410000   1.184422e-08   2.1704116e-10  1.184422e-08   0              1.2061261e-08  0              1.184422e-08   0              0              0            
    420000   1.2369386e-08  2.152693e-10   1.2369386e-08  0              1.2584655e-08  0              1.2369386e-08  0              0              0            
    430000   1.2900427e-08  2.134958e-10   1.2900427e-08  0              1.3113922e-08  0              1.2900427e-08  0              0              0            
    440000   1.3434794e-08  2.1172839e-10  1.3434794e-08  0              1.3646523e-08  0              1.3434794e-08  0              0              0            
    450000   1.3969763e-08  2.0997429e-10  1.3969763e-08  0              1.4179737e-08  0              1.3969763e-08  0              0              0            
    460000   1.450252e-08   2.082399e-10   1.450252e-08   0              1.4710759e-08  0              1.450252e-08   0              0              0            
    470000   1.5030262e-08  2.0653059e-10  1.5030262e-08  0              1.5236792e-08  0              1.5030262e-08  0              0              0            
    480000   1.5550296e-08  2.0485061e-10  1.5550296e-08  0              1.5755146e-08  0              1.5550296e-08  0              0              0            
    490000   1.6060128e-08  2.0320296e-10  1.6060128e-08  0              1.6263331e-08  0              1.6060128e-08  0              0              0            
    500000   1.6557538e-08  2.0158951e-10  1.6557538e-08  0              1.6759128e-08  0              1.6557538e-08  0              0              0            
    510000   1.7040642e-08  2.0001102e-10  1.7040642e-08  0              1.7240653e-08  0              1.7040642e-08  0              0              0            
    520000   1.7507918e-08  1.9846732e-10  1.7507918e-08  0              1.7706385e-08  0              1.7507918e-08  0              0              0            
    530000   1.7958232e-08  1.9695749e-10  1.7958232e-08  0              1.8155189e-08  0              1.7958232e-08  0              0              0            
    540000   1.8390825e-08  1.9547999e-10  1.8390825e-08  0              1.8586305e-08  0              1.8390825e-08  0              0              0            
    550000   1.8805298e-08  1.9403291e-10  1.8805298e-08  0              1.8999331e-08  0              1.8805298e-08  0              0              0            
    560000   1.9201578e-08  1.9261405e-10  1.9201578e-08  0              1.9394192e-08  0              1.9201578e-08  0              0              0            
    570000   1.9579877e-08  1.9122113e-10  1.9579877e-08  0              1.9771098e-08  0              1.9579877e-08  0              0              0            
    580000   1.9940646e-08  1.8985183e-10  1.9940646e-08  0              2.0130498e-08  0              1.9940646e-08  0              0              0            
    590000   2.0284531e-08  1.8850391e-10  2.0284531e-08  0              2.0473035e-08  0              2.0284531e-08  0              0              0            
    600000   2.0612324e-08  1.8717528e-10  2.0612324e-08  0              2.07995e-08    0              2.0612324e-08  0              0              0            
    610000   2.0924927e-08  1.8586401e-10  2.0924927e-08  0              2.1110791e-08  0              2.0924927e-08  0              0              0            
    620000   2.1223307e-08  1.8456834e-10  2.1223307e-08  0              2.1407875e-08  0              2.1223307e-08  0              0              0            
    630000   2.1508469e-08  1.8328671e-10  2.1508469e-08  0              2.1691756e-08  0              2.1508469e-08  0              0              0            
    640000   2.1781427e-08  1.8201775e-10  2.1781427e-08  0              2.1963445e-08  0              2.1781427e-08  0              0              0            
    650000   2.2043182e-08  1.8076027e-10  2.2043182e-08  0              2.2223942e-08  0              2.2043182e-08  0              0              0            
    660000   2.2294706e-08  1.7951322e-10  2.2294706e-08  0              2.2474219e-08  0              2.2294706e-08  0              0              0            
    670000   2.2536929e-08  1.7827572e-10  2.2536929e-08  0              2.2715204e-08  0              2.2536929e-08  0              0              0            
    680000   2.2770729e-08  1.7704699e-10  2.2770729e-08  0              2.2947776e-08  0              2.2770729e-08  0              0              0            
    690000   2.2996928e-08  1.758264e-10   2.2996928e-08  0              2.3172754e-08  0              2.2996928e-08  0              0              0            
    700000   2.321629e-08   1.7461336e-10  2.321629e-08   0              2.3390903e-08  0              2.321629e-08   0              0              0            
    710000   2.3429516e-08  1.7340742e-10  2.3429516e-08  0              2.3602923e-08  0              2.3429516e-08  0              0              0            
    720000   2.363725e-08   1.7220815e-10  2.363725e-08   0              2.3809458e-08  0              2.363725e-08   0              0              0            
    730000   2.3840077e-08  1.7101521e-10  2.3840077e-08  0              2.4011092e-08  0              2.3840077e-08  0              0              0            
    740000   2.4038527e-08  1.698283e-10   2.4038527e-08  0              2.4208356e-08  0              2.4038527e-08  0              0              0            
    750000   2.3917174e-08  1.2871782e-10  2.3893215e-08  2.3958901e-11  2.4045892e-08  0              2.3917174e-08  0              0              0            
    760000   2.3185776e-08  1.25775e-10    2.3160966e-08  2.480976e-11   2.3311551e-08  0              2.3185776e-08  0              0              0            
    770000   2.25501e-08    1.2382492e-10  2.2524643e-08  2.5457284e-11  2.2673925e-08  0              2.25501e-08    0              0              0            
    780000   2.2019105e-08  1.2233149e-10  2.1993166e-08  2.5939208e-11  2.2141437e-08  0              2.2019105e-08  0              0              0            
    790000   2.1587968e-08  1.2110773e-10  2.1561653e-08  2.6315527e-11  2.1709076e-08  0              2.1587968e-08  0              0              0            
    800000   2.1246255e-08  1.2006045e-10  2.1219637e-08  2.6618218e-11  2.1366316e-08  0              2.1246255e-08  0              0              0            
    810000   2.0982591e-08  1.191324e-10   2.0955725e-08  2.6866382e-11  2.1101724e-08  0              2.0982591e-08  0              0              0            
    820000   2.0786535e-08  1.1828487e-10  2.0759463e-08  2.7072363e-11  2.090482e-08   0              2.0786535e-08  0              0              0            
    830000   2.0649123e-08  1.1749048e-10  2.0621878e-08  2.7244902e-11  2.0766613e-08  0              2.0649123e-08  0              0              0            
    840000   2.0562872e-08  1.1672939e-10  2.0535482e-08  2.7390428e-11  2.0679601e-08  0              2.0562872e-08  0              0              0            
    850000   2.05216e-08    1.1598697e-10  2.0494086e-08  2.7514002e-11  2.0637587e-08  0              2.05216e-08    0              0              0            
    860000   2.0520195e-08  1.1525233e-10  2.0492575e-08  2.7619521e-11  2.0635447e-08  0              2.0520195e-08  0              0              0            
    870000   2.0554406e-08  1.1451728e-10  2.0526696e-08  2.7710337e-11  2.0668923e-08  0              2.0554406e-08  0              0              0            
    880000   2.0620663e-08  1.1377567e-10  2.0592874e-08  2.7789248e-11  2.0734439e-08  0              2.0620663e-08  0              0              0            
    890000   2.0715927e-08  1.1302289e-10  2.0688068e-08  2.7858519e-11  2.0828949e-08  0              2.0715927e-08  0              0              0            
    900000   2.0837568e-08  1.1225553e-10  2.0809648e-08  2.7920286e-11  2.0949824e-08  0              2.0837568e-08  0              0              0            
    910000   2.0983278e-08  1.1147114e-10  2.0955301e-08  2.7976341e-11  2.1094749e-08  0              2.0983278e-08  0              0              0            
    920000   2.115099e-08   1.1066802e-10  2.1122962e-08  2.8028216e-11  2.1261658e-08  0              2.115099e-08   0              0              0            
    930000   2.1338828e-08  1.0984511e-10  2.131075e-08   2.8077456e-11  2.1448673e-08  0              2.1338828e-08  0              0              0            
    940000   2.1545057e-08  1.0900182e-10  2.1516932e-08  2.8125301e-11  2.1654059e-08  0              2.1545057e-08  0              0              0            
    950000   2.1768057e-08  1.08138e-10    2.1739884e-08  2.817288e-11   2.1876195e-08  0              2.1768057e-08  0              0              0            
    960000   2.2006294e-08  1.0725383e-10  2.1978073e-08  2.8221291e-11  2.2113548e-08  0              2.2006294e-08  0              0              0            
    970000   2.2258308e-08  1.0634978e-10  2.2230036e-08  2.8271484e-11  2.2364657e-08  0              2.2258308e-08  0              0              0            
    980000   2.2522697e-08  1.054265e-10   2.2494373e-08  2.8324257e-11  2.2628124e-08  0              2.2522697e-08  0              0              0            
    990000   2.2798117e-08  1.0448486e-10  2.2769737e-08  2.8380454e-11  2.2902602e-08  0              2.2798117e-08  0              0              0            
   1000000   2.3083273e-08  1.0352582e-10  2.3054832e-08  2.8440689e-11  2.3186798e-08  0              2.3083273e-08  0              0              0            
   1010000   2.3376919e-08  1.0255044e-10  2.3348414e-08  2.8505542e-11  2.347947e-08   0              2.3376919e-08  0              0              0            
   1020000   2.3677865e-08  1.0155987e-10  2.3649289e-08  2.857556e-11   2.3779425e-08  0              2.3677865e-08  0              0              0            
   1030000   2.3984969e-08  1.0055526e-10  2.3956318e-08  2.8651176e-11  2.4085524e-08  0              2.3984969e-08  0              0              0            
   1040000   2.4297148e-08  9.9537789e-11  2.4268415e-08  2.8732711e-11  2.4396685e-08  0              2.4297148e-08  0              0              0            
   1050000   2.4613375e-08  9.8508632e-11  2.4584555e-08  2.8820529e-11  2.4711884e-08  0              2.4613375e-08  0              0              0            
   1060000   2.4932686e-08  9.7468941e-11  2.4903771e-08  2.8914842e-11  2.5030155e-08  0              2.4932686e-08  0              0              0            
   1070000   2.5254177e-08  9.6419839e-11  2.5225162e-08  2.9015826e-11  2.5350597e-08  0              2.5254177e-08  0              0              0            
   1080000   2.557701e-08   9.5362409e-11  2.5547886e-08  2.912358e-11   2.5672372e-08  0              2.557701e-08   0              0              0            
   1090000   2.5900408e-08  9.4297691e-11  2.5871169e-08  2.9238211e-11  2.5994705e-08  0              2.5900408e-08  0              0              0            
   1100000   2.622366e-08   9.3226676e-11  2.61943e-08    2.9359745e-11  2.6316887e-08  0              2.622366e-08   0              0              0            
   1110000   2.6546118e-08  9.2150306e-11  2.651663e-08   2.9488137e-11  2.6638269e-08  0              2.6546118e-08  0              0              0            
   1120000   2.6867197e-08  9.1069474e-11  2.6837574e-08  2.962338e-11   2.6958266e-08  0              2.6867197e-08  0              0              0            
   1130000   2.7186368e-08  8.9985022e-11  2.7156603e-08  2.9765432e-11  2.7276353e-08  0              2.7186368e-08  0              0              0            
   1140000   2.7503163e-08  8.8897746e-11  2.7473249e-08  2.9914096e-11  2.7592061e-08  0              2.7503163e-08  0              0              0            
   1150000   2.7817165e-08  8.7808399e-11  2.7787096e-08  3.0069333e-11  2.7904973e-08  0              2.7817165e-08  0              0              0            
   1160000   2.8128009e-08  8.6717689e-11  2.8097778e-08  3.0230948e-11  2.8214727e-08  0              2.8128009e-08  0              0              0            
   1170000   2.8435378e-08  8.5626285e-11  2.8404979e-08  3.0398788e-11  2.8521004e-08  0              2.8435378e-08  0              0              0            
   1180000   2.8738997e-08  8.453482e-11   2.8708424e-08  3.0572661e-11  2.8823532e-08  0              2.8738997e-08  0              0              0            
   1190000   2.9038632e-08  8.3443894e-11  2.900788e-08   3.0752416e-11  2.9122076e-08  0              2.9038632e-08  0              0              0            
   1200000   2.9334086e-08  8.2354073e-11  2.9303148e-08  3.0937785e-11  2.941644e-08   0              2.9334086e-08  0              0              0            
   1210000   2.9625194e-08  8.1265896e-11  2.9594065e-08  3.1128658e-11  2.970646e-08   0              2.9625194e-08  0              0              0            
   1220000   2.9911821e-08  8.0179876e-11  2.9880496e-08  3.1324728e-11  2.9992001e-08  0              2.9911821e-08  0              0              0            
   1230000   3.0193858e-08  7.9096501e-11  3.0162332e-08  3.1525849e-11  3.0272955e-08  0              3.0193858e-08  0              0              0            
   1240000   3.0471222e-08  7.8016236e-11  3.043949e-08   3.1731793e-11  3.0549238e-08  0              3.0471222e-08  0              0              0            
   1250000   3.0743846e-08  7.6939525e-11  3.0711904e-08  3.1942336e-11  3.0820786e-08  0              3.0743846e-08  0              0              0            
   1260000   3.1011686e-08  7.5866793e-11  3.0979529e-08  3.2157212e-11  3.1087553e-08  0              3.1011686e-08  0              0              0            
   1270000   3.127471e-08   7.4798444e-11  3.1242334e-08  3.2376316e-11  3.1349509e-08  0              3.127471e-08   0              0              0            
   1280000   3.1532902e-08  7.3734868e-11  3.1500303e-08  3.2599343e-11  3.1606637e-08  0              3.1532902e-08  0              0              0            
   1290000   3.1786257e-08  7.2676436e-11  3.1753431e-08  3.282611e-11   3.1858934e-08  0              3.1786257e-08  0              0              0            
   1300000   3.2034781e-08  7.1623503e-11  3.2001724e-08  3.3056433e-11  3.2106404e-08  0              3.2034781e-08  0              0              0            
   1310000   3.2278487e-08  7.0576409e-11  3.2245197e-08  3.3290086e-11  3.2349063e-08  0              3.2278487e-08  0              0              0            
   1320000   3.2517396e-08  6.9535481e-11  3.2483869e-08  3.3526848e-11  3.2586932e-08  0              3.2517396e-08  0              0              0            
   1330000   3.2751537e-08  6.8501028e-11  3.2717771e-08  3.3766574e-11  3.2820038e-08  0              3.2751537e-08  0              0              0            
   1340000   3.2980942e-08  6.7473348e-11  3.2946933e-08  3.4009041e-11  3.3048416e-08  0              3.2980942e-08  0              0              0            
   1350000   3.3205649e-08  6.6452723e-11  3.3171395e-08  3.4254027e-11  3.3272102e-08  0              3.3205649e-08  0              0              0            
   1360000   3.3425698e-08  6.5439424e-11  3.3391197e-08  3.4501426e-11  3.3491138e-08  0              3.3425698e-08  0              0              0            
   1370000   3.3641134e-08  6.4433707e-11  3.3606383e-08  3.4751016e-11  3.3705568e-08  0              3.3641134e-08  0              0              0            
   1380000   3.3852004e-08  6.3435817e-11  3.3817001e-08  3.5002614e-11  3.391544e-08   0              3.3852004e-08  0              0              0            
   1390000   3.4058356e-08  6.2445983e-11  3.40231e-08    3.5256038e-11  3.4120802e-08  0              3.4058356e-08  0              0              0            
   1400000   3.4260241e-08  6.1464424e-11  3.422473e-08   3.5511183e-11  3.4321705e-08  0              3.4260241e-08  0              0              0            
   1410000   3.4457711e-08  6.0491347e-11  3.4421943e-08  3.5767788e-11  3.4518202e-08  0              3.4457711e-08  0              0              0            
   1420000   3.4650819e-08  5.9526947e-11  3.4614793e-08  3.6025788e-11  3.4710346e-08  0              3.4650819e-08  0              0              0            
   1430000   3.483962e-08   5.8571406e-11  3.4803335e-08  3.6285e-11     3.4898191e-08  0              3.483962e-08   0              0              0            
   1440000   3.5024168e-08  5.7624894e-11  3.4987623e-08  3.654528e-11   3.5081793e-08  0              3.5024168e-08  0              0              0            
   1450000   3.5204519e-08  5.6687571e-11  3.5167713e-08  3.6806448e-11  3.5261207e-08  0              3.5204519e-08  0              0              0            
   1460000   3.538073e-08   5.5759586e-11  3.5343661e-08  3.7068397e-11  3.5436489e-08  0              3.538073e-08   0              0              0            
   1470000   3.5552856e-08  5.4841076e-11  3.5515525e-08  3.7330985e-11  3.5607697e-08  0              3.5552856e-08  0              0              0            
   1480000   3.5720955e-08  5.3932167e-11  3.5683361e-08  3.7594107e-11  3.5774887e-08  0              3.5720955e-08  0              0              0            
   1490000   3.5885083e-08  5.3032977e-11  3.5847226e-08  3.7857582e-11  3.5938116e-08  0              3.5885083e-08  0              0              0            
   1500000   3.6045299e-08  5.2143611e-11  3.6007178e-08  3.8121304e-11  3.6097443e-08  0              3.6045299e-08  0              0              0            
   1510000   3.6201659e-08  5.1264166e-11  3.6163274e-08  3.8385169e-11  3.6252923e-08  0              3.6201659e-08  0              0              0            
   1520000   3.6354221e-08  5.0394727e-11  3.6315572e-08  3.8649073e-11  3.6404616e-08  0              3.6354221e-08  0              0              0            
   1530000   3.6503043e-08  4.9535372e-11  3.646413e-08   3.8912873e-11  3.6552578e-08  0              3.6503043e-08  0              0              0            
   1540000   3.6648181e-08  4.8686169e-11  3.6609005e-08  3.9176501e-11  3.6696867e-08  0              3.6648181e-08  0              0              0            
   1550000   3.6789695e-08  4.7847177e-11  3.6750255e-08  3.9439776e-11  3.6837542e-08  0              3.6789695e-08  0              0              0            
   1560000   3.692764e-08   4.7018445e-11  3.6887938e-08  3.9702672e-11  3.6974659e-08  0              3.692764e-08   0              0              0            
   1570000   3.7062075e-08  4.6200017e-11  3.702211e-08   3.9965081e-11  3.7108275e-08  0              3.7062075e-08  0              0              0            
   1580000   3.7193057e-08  4.5391925e-11  3.7152831e-08  4.02269e-11    3.7238449e-08  0              3.7193057e-08  0              0              0            
   1590000   3.7320644e-08  4.4594197e-11  3.7280155e-08  4.0488062e-11  3.7365238e-08  0              3.7320644e-08  0              0              0            
   1600000   3.744489e-08   4.3806849e-11  3.7404142e-08  4.0748423e-11  3.7488697e-08  0              3.744489e-08   0              0              0            
   1610000   3.7565855e-08  4.3029894e-11  3.7524847e-08  4.1007955e-11  3.7608885e-08  0              3.7565855e-08  0              0              0            
   1620000   3.7683594e-08  4.2263335e-11  3.7642328e-08  4.1266552e-11  3.7725857e-08  0              3.7683594e-08  0              0              0            
   1630000   3.7798164e-08  4.1507171e-11  3.775664e-08   4.1524186e-11  3.7839671e-08  0              3.7798164e-08  0              0              0            
   1640000   3.790962e-08   4.0761391e-11  3.7867839e-08  4.1780712e-11  3.7950381e-08  0              3.790962e-08   0              0              0            
   1650000   3.8018019e-08  4.0025981e-11  3.7975982e-08  4.2036102e-11  3.8058044e-08  0              3.8018019e-08  0              0              0            
   1660000   3.8123415e-08  3.930092e-11   3.8081125e-08  4.2290326e-11  3.8162716e-08  0              3.8123415e-08  0              0              0            
   1670000   3.8225864e-08  3.8586179e-11  3.8183321e-08  4.2543239e-11  3.826445e-08   0              3.8225864e-08  0              0              0            
   1680000   3.8325421e-08  3.7881728e-11  3.8282626e-08  4.2794851e-11  3.8363303e-08  0              3.8325421e-08  0              0              0            
   1690000   3.842214e-08   3.7187527e-11  3.8379095e-08  4.3045055e-11  3.8459327e-08  0              3.842214e-08   0              0              0            
   1700000   3.8516074e-08  3.6503536e-11  3.847278e-08   4.329386e-11   3.8552578e-08  0              3.8516074e-08  0              0              0            
   1710000   3.8607278e-08  3.5829705e-11  3.8563737e-08  4.3541158e-11  3.8643108e-08  0              3.8607278e-08  0              0              0            
   1720000   3.8695805e-08  3.5165984e-11  3.8652018e-08  4.3786919e-11  3.8730971e-08  0              3.8695805e-08  0              0              0            
   1730000   3.8781706e-08  3.4512315e-11  3.8737675e-08  4.4031113e-11  3.8816218e-08  0              3.8781706e-08  0              0              0            
   1740000   3.8865035e-08  3.386864e-11   3.8820761e-08  4.4273671e-11  3.8898903e-08  0              3.8865035e-08  0              0              0            
   1750000   3.8945842e-08  3.3234893e-11  3.8901327e-08  4.4514562e-11  3.8979077e-08  0              3.8945842e-08  0              0              0            
   1760000   3.9024179e-08  3.2611008e-11  3.8979425e-08  4.4753755e-11  3.905679e-08   0              3.9024179e-08  0              0              0            
   1770000   3.9100097e-08  3.1996912e-11  3.9055106e-08  4.4991218e-11  3.9132094e-08  0              3.9100097e-08  0              0              0            
   1780000   3.9173645e-08  3.1392533e-11  3.9128418e-08  4.5226882e-11  3.9205037e-08  0              3.9173645e-08  0              0              0            
   1790000   3.9244873e-08  3.0797792e-11  3.9199412e-08  4.5460792e-11  3.9275671e-08  0              3.9244873e-08  0              0              0            
   1800000   3.931383e-08   3.0212609e-11  3.9268137e-08  4.5692839e-11  3.9344043e-08  0              3.931383e-08   0              0              0            
   1810000   3.9380565e-08  2.9636902e-11  3.9334641e-08  4.5923029e-11  3.9410201e-08  0              3.9380565e-08  0              0              0            
   1820000   3.9445124e-08  2.9070585e-11  3.9398972e-08  4.6151368e-11  3.9474194e-08  0              3.9445124e-08  0              0              0            
   1830000   3.9507555e-08  2.8513571e-11  3.9461177e-08  4.6377786e-11  3.9536069e-08  0              3.9507555e-08  0              0              0            
   1840000   3.9567905e-08  2.796577e-11   3.9521303e-08  4.660225e-11   3.9595871e-08  0              3.9567905e-08  0              0              0            
   1850000   3.962622e-08   2.7427091e-11  3.9579395e-08  4.6824804e-11  3.9653647e-08  0              3.962622e-08   0              0              0            
   1860000   3.9682545e-08  2.689744e-11   3.9635499e-08  4.7045413e-11  3.9709442e-08  0              3.9682545e-08  0              0              0            
   1870000   3.9736924e-08  2.6376722e-11  3.968966e-08   4.7264008e-11  3.97633e-08    0              3.9736924e-08  0              0              0            
   1880000   3.9789401e-08  2.5864841e-11  3.9741921e-08  4.7480631e-11  3.9815266e-08  0              3.9789401e-08  0              0              0            
   1890000   3.9840021e-08  2.5361699e-11  3.9792326e-08  4.7695249e-11  3.9865383e-08  0              3.9840021e-08  0              0              0            
   1900000   3.9888825e-08  2.4867196e-11  3.9840917e-08  4.7907827e-11  3.9913692e-08  0              3.9888825e-08  0              0              0            
   1910000   3.9935856e-08  2.4381232e-11  3.9887738e-08  4.8118408e-11  3.9960237e-08  0              3.9935856e-08  0              0              0            
   1920000   3.9981155e-08  2.3903707e-11  3.9932829e-08  4.8326958e-11  4.0005059e-08  0              3.9981155e-08  0              0              0            
   1930000   4.0024764e-08  2.3434518e-11  3.997623e-08   4.8533481e-11  4.0048198e-08  0              4.0024764e-08  0              0              0            
   1940000   4.0066721e-08  2.2973562e-11  4.0017983e-08  4.8737942e-11  4.0089695e-08  0              4.0066721e-08  0              0              0            
   1950000   4.0107067e-08  2.2520736e-11  4.0058127e-08  4.8940382e-11  4.0129588e-08  0              4.0107067e-08  0              0              0            
   1960000   4.0145841e-08  2.2075937e-11  4.00967e-08    4.914073e-11   4.0167917e-08  0              4.0145841e-08  0              0              0            
   1970000   4.018308e-08   2.1639059e-11  4.0133741e-08  4.9339064e-11  4.0204719e-08  0              4.018308e-08   0              0              0            
   1980000   4.0218822e-08  2.1209998e-11  4.0169287e-08  4.953535e-11   4.0240032e-08  0              4.0218822e-08  0              0              0            
   1990000   4.0253104e-08  2.078865e-11   4.0203375e-08  4.9729552e-11  4.0273893e-08  0              4.0253104e-08  0              0              0            
   2000000   4.0285963e-08  2.0374909e-11  4.0236041e-08  4.992171e-11   4.0306338e-08  0              4.0285963e-08  0              0              0            
   2010000   4.0317433e-08  1.996867e-11   4.0267321e-08  5.0111866e-11  4.0337402e-08  0              4.0317433e-08  0              0              0            
   2020000   4.034755e-08   1.9569828e-11  4.029725e-08   5.0299946e-11  4.036712e-08   0              4.034755e-08   0              0              0            
   2030000   4.0376348e-08  1.9178279e-11  4.0325862e-08  5.048599e-11   4.0395526e-08  0              4.0376348e-08  0              0              0            
   2040000   4.0403861e-08  1.8793918e-11  4.0353191e-08  5.067e-11      4.0422655e-08  0              4.0403861e-08  0              0              0            
   2050000   4.0430121e-08  1.841664e-11   4.0379269e-08  5.0851978e-11  4.0448538e-08  0              4.0430121e-08  0              0              0            
   2060000   4.0455162e-08  1.8046341e-11  4.040413e-08   5.1031965e-11  4.0473208e-08  0              4.0455162e-08  0              0              0            
   2070000   4.0479014e-08  1.7682917e-11  4.0427804e-08  5.1209885e-11  4.0496697e-08  0              4.0479014e-08  0              0              0            
   2080000   4.0501709e-08  1.7326265e-11  4.0450324e-08  5.1385855e-11  4.0519036e-08  0              4.0501709e-08  0              0              0            
   2090000   4.0523278e-08  1.6976282e-11  4.0471718e-08  5.15598e-11    4.0540255e-08  0              4.0523278e-08  0              0              0            
   2100000   4.0543751e-08  1.6632865e-11  4.0492019e-08  5.1731759e-11  4.0560384e-08  0              4.0543751e-08  0              0              0            
   2110000   4.0563156e-08  1.6295914e-11  4.0511254e-08  5.1901771e-11  4.0579452e-08  0              4.0563156e-08  0              0              0            
   2120000   4.0581523e-08  1.5965327e-11  4.0529453e-08  5.2069801e-11  4.0597488e-08  0              4.0581523e-08  0              0              0            
   2130000   4.0598879e-08  1.5641003e-11  4.0546644e-08  5.2235886e-11  4.061452e-08   0              4.0598879e-08  0              0              0            
   2140000   4.0615254e-08  1.5322842e-11  4.0562853e-08  5.2400028e-11  4.0630576e-08  0              4.0615254e-08  0              0              0            
   2150000   4.0630672e-08  1.5010747e-11  4.057811e-08   5.2562228e-11  4.0645683e-08  0              4.0630672e-08  0              0              0            
   2160000   4.0645161e-08  1.4704618e-11  4.0592439e-08  5.2722487e-11  4.0659866e-08  0              4.0645161e-08  0              0              0            
   2170000   4.0658747e-08  1.4404359e-11  4.0605866e-08  5.288088e-11   4.0673151e-08  0              4.0658747e-08  0              0              0            
   2180000   4.0671455e-08  1.4109872e-11  4.0618418e-08  5.3037371e-11  4.0685565e-08  0              4.0671455e-08  0              0              0            
   2190000   4.068331e-08   1.3821063e-11  4.0630118e-08  5.3191998e-11  4.0697131e-08  0              4.068331e-08   0              0              0            
   2200000   4.0694336e-08  1.3537836e-11  4.0640991e-08  5.3344762e-11  4.0707874e-08  0              4.0694336e-08  0              0              0            
   2210000   4.0704557e-08  1.3260098e-11  4.0651061e-08  5.3495662e-11  4.0717817e-08  0              4.0704557e-08  0              0              0            
   2220000   4.0713996e-08  1.2987756e-11  4.0660351e-08  5.3644738e-11  4.0726983e-08  0              4.0713996e-08  0              0              0            
   2230000   4.0722675e-08  1.2720718e-11  4.0668883e-08  5.3791989e-11  4.0735396e-08  0              4.0722675e-08  0              0              0            
   2240000   4.0730618e-08  1.2458894e-11  4.0676681e-08  5.3937415e-11  4.0743077e-08  0              4.0730618e-08  0              0              0            
   2250000   4.0737845e-08  1.2202193e-11  4.0683764e-08  5.4081092e-11  4.0750048e-08  0              4.0737845e-08  0              0              0            
   2260000   4.0744379e-08  1.1950527e-11  4.0690156e-08  5.4222983e-11  4.0756329e-08  0              4.0744379e-08  0              0              0            
   2270000   4.0750238e-08  1.1703808e-11  4.0695875e-08  5.4363125e-11  4.0761942e-08  0              4.0750238e-08  0              0              0            
   2280000   4.0755445e-08  1.1461949e-11  4.0700944e-08  5.4501518e-11  4.0766907e-08  0              4.0755445e-08  0              0              0            
   2290000   4.0760019e-08  1.1224865e-11  4.070538e-08   5.4638162e-11  4.0771243e-08  0              4.0760019e-08  0              0              0            
   2300000   4.0763978e-08  1.0992471e-11  4.0709205e-08  5.4773132e-11  4.0774971e-08  0              4.0763978e-08  0              0              0            
   2310000   4.0767342e-08  1.0764683e-11  4.0712436e-08  5.4906391e-11  4.0778107e-08  0              4.0767342e-08  0              0              0            
   2320000   4.077013e-08   1.054142e-11   4.0715092e-08  5.5037975e-11  4.0780671e-08  0              4.077013e-08   0              0              0            
   2330000   4.0772359e-08  1.0322599e-11  4.0717191e-08  5.5167922e-11  4.0782682e-08  0              4.0772359e-08  0              0              0            
   2340000   4.0774047e-08  1.0108141e-11  4.0718751e-08  5.5296195e-11  4.0784155e-08  0              4.0774047e-08  0              0              0            
   2350000   4.0775211e-08  9.897966e-12   4.0719788e-08  5.5422867e-11  4.0785109e-08  0              4.0775211e-08  0              0              0            
   2360000   4.0775868e-08  9.6919965e-12  4.072032e-08   5.5547939e-11  4.078556e-08   0              4.0775868e-08  0              0              0            
   2370000   4.0776034e-08  9.4901552e-12  4.0720363e-08  5.567141e-11   4.0785524e-08  0              4.0776034e-08  0              0              0            
   2380000   4.0775725e-08  9.2923665e-12  4.0719932e-08  5.579328e-11   4.0785018e-08  0              4.0775725e-08  0              0              0            
   2390000   4.0774957e-08  9.0985553e-12  4.0719044e-08  5.5913624e-11  4.0784056e-08  0              4.0774957e-08  0              0              0            
   2400000   4.0773745e-08  8.9086482e-12  4.0717713e-08  5.6032402e-11  4.0782654e-08  0              4.0773745e-08  0              0              0            
   2410000   4.0772104e-08  8.7225724e-12  4.0715954e-08  5.6149653e-11  4.0780826e-08  0              4.0772104e-08  0              0              0            
   2420000   4.0770048e-08  8.5402564e-12  4.0713782e-08  5.6265413e-11  4.0778588e-08  0              4.0770048e-08  0              0              0            
   2430000   4.0767591e-08  8.3616298e-12  4.0711211e-08  5.6379681e-11  4.0775952e-08  0              4.0767591e-08  0              0              0            
   2440000   4.0764747e-08  8.1866233e-12  4.0708255e-08  5.6492458e-11  4.0772934e-08  0              4.0764747e-08  0              0              0            
   2450000   4.076153e-08   8.0151686e-12  4.0704926e-08  5.6603817e-11  4.0769545e-08  0              4.076153e-08   0              0              0            
   2460000   4.0757952e-08  7.8471983e-12  4.0701238e-08  5.6713682e-11  4.0765799e-08  0              4.0757952e-08  0              0              0            
   2470000   4.0754026e-08  7.6826465e-12  4.0697204e-08  5.6822166e-11  4.0761708e-08  0              4.0754026e-08  0              0              0            
   2480000   4.0749765e-08  7.5214479e-12  4.0692835e-08  5.692923e-11   4.0757286e-08  0              4.0749765e-08  0              0              0            
   2490000   4.074518e-08   7.3635385e-12  4.0688145e-08  5.7034873e-11  4.0752544e-08  0              4.074518e-08   0              0              0            
   2500000   4.0740284e-08  7.2088552e-12  4.0683145e-08  5.713917e-11   4.0747493e-08  0              4.0740284e-08  0              0              0            
   2510000   4.0735088e-08  7.0573361e-12  4.0677846e-08  5.724212e-11   4.0742146e-08  0              4.0735088e-08  0              0              0            
   2520000   4.0729603e-08  6.9089202e-12  4.067226e-08   5.7343685e-11  4.0736512e-08  0              4.0729603e-08  0              0              0            
   2530000   4.072384e-08   6.7635475e-12  4.0666396e-08  5.7443976e-11  4.0730604e-08  0              4.072384e-08   0              0              0            
   2540000   4.071781e-08   6.621159e-12   4.0660267e-08  5.7542917e-11  4.0724431e-08  0              4.071781e-08   0              0              0            
   2550000   4.0711523e-08  6.4816968e-12  4.0653882e-08  5.7640583e-11  4.0718005e-08  0              4.0711523e-08  0              0              0            
   2560000   4.0704988e-08  6.3451039e-12  4.0647251e-08  5.7736972e-11  4.0711334e-08  0              4.0704988e-08  0              0              0            
   2570000   4.0698217e-08  6.2113241e-12  4.0640385e-08  5.7832085e-11  4.0704428e-08  0              4.0698217e-08  0              0              0            
   2580000   4.0691218e-08  6.0803026e-12  4.0633292e-08  5.7925957e-11  4.0697298e-08  0              4.0691218e-08  0              0              0            
   2590000   4.0684e-08     5.951985e-12   4.0625981e-08  5.8018588e-11  4.0689952e-08  0              4.0684e-08     0              0              0            
   2600000   4.0676573e-08  5.8263184e-12  4.0618463e-08  5.8110013e-11  4.0682399e-08  0              4.0676573e-08  0              0              0            
   2610000   4.0668945e-08  5.7032505e-12  4.0610745e-08  5.8200233e-11  4.0674648e-08  0              4.0668945e-08  0              0              0            
   2620000   4.0661125e-08  5.5827298e-12  4.0602836e-08  5.8289284e-11  4.0666708e-08  0              4.0661125e-08  0              0              0            
   2630000   4.0653121e-08  5.464706e-12   4.0594744e-08  5.8377165e-11  4.0658586e-08  0              4.0653121e-08  0              0              0            
   2640000   4.0644942e-08  5.3491297e-12  4.0586478e-08  5.8463875e-11  4.0650291e-08  0              4.0644942e-08  0              0              0            
   2650000   4.0636595e-08  5.2359521e-12  4.0578045e-08  5.8549413e-11  4.0641831e-08  0              4.0636595e-08  0              0              0            
   2660000   4.0628087e-08  5.1251254e-12  4.0569454e-08  5.8633853e-11  4.0633212e-08  0              4.0628087e-08  0              0              0            
   2670000   4.0619427e-08  5.0166029e-12  4.056071e-08   5.8717194e-11  4.0624444e-08  0              4.0619427e-08  0              0              0            
   2680000   4.0610621e-08  4.9103383e-12  4.0551822e-08  5.8799435e-11  4.0615532e-08  0              4.0610621e-08  0              0              0            
   2690000   4.0601677e-08  4.8062867e-12  4.0542796e-08  5.8880576e-11  4.0606483e-08  0              4.0601677e-08  0              0              0            
   2700000   4.0592601e-08  4.7044034e-12  4.053364e-08   5.8960653e-11  4.0597305e-08  0              4.0592601e-08  0              0              0            
   2710000   4.05834e-08    4.604645e-12   4.052436e-08   5.9039702e-11  4.0588005e-08  0              4.05834e-08    0              0              0            
   2720000   4.057408e-08   4.5069687e-12  4.0514962e-08  5.9117684e-11  4.0578587e-08  0              4.057408e-08   0              0              0            
   2730000   4.0564648e-08  4.4113325e-12  4.0505453e-08  5.9194638e-11  4.0569059e-08  0              4.0564648e-08  0              0              0            
   2740000   4.0555109e-08  4.3176953e-12  4.0495839e-08  5.9270561e-11  4.0559427e-08  0              4.0555109e-08  0              0              0            
   2750000   4.0545471e-08  4.2260166e-12  4.0486125e-08  5.9345527e-11  4.0549697e-08  0              4.0545471e-08  0              0              0            
   2760000   4.0535737e-08  4.1362567e-12  4.0476318e-08  5.9419461e-11  4.0539873e-08  0              4.0535737e-08  0              0              0            
   2770000   4.0525914e-08  4.0483767e-12  4.0466422e-08  5.9492437e-11  4.0529963e-08  0              4.0525914e-08  0              0              0            
   2780000   4.0516008e-08  3.9623385e-12  4.0456444e-08  5.9564453e-11  4.051997e-08   0              4.0516008e-08  0              0              0            
   2790000   4.0391074e-08  8.0223321e-13  4.0315626e-08  7.5447834e-11  4.0391876e-08  0              4.0391074e-08  0              0              0            
   2800000   4.0017663e-08  2.7733212e-13  3.9939622e-08  7.8040259e-11  4.001794e-08   0              4.0017663e-08  0              0              0            
   2810000   3.9710977e-08  1.3656151e-13  3.9631879e-08  7.9098503e-11  3.9711114e-08  0              3.9710977e-08  0              0              0            
   2820000   3.9465887e-08  7.7270871e-14  3.9386334e-08  7.955315e-11   3.9465965e-08  0              3.9465887e-08  0              0              0            
   2830000   3.9273515e-08  4.5534183e-14  3.9193746e-08  7.9768791e-11  3.927356e-08   0              3.9273515e-08  0              0              0            
   2840000   3.9123822e-08  2.7150446e-14  3.9043938e-08  7.9884368e-11  3.9123849e-08  0              3.9123822e-08  0              0              0            
   2850000   3.9007762e-08  1.6256045e-14  3.8927808e-08  7.9954314e-11  3.9007778e-08  0              3.9007762e-08  0              0              0            
   2860000   3.8917888e-08  9.7524414e-15  3.8837887e-08  8.0001018e-11  3.8917898e-08  0              3.8917888e-08  0              0              0            
   2870000   3.8848304e-08  5.8579762e-15  3.876827e-08   8.0034333e-11  3.884831e-08   0              3.8848304e-08  0              0              0            
   2880000   3.8794414e-08  3.5217994e-15  3.8714355e-08  8.005907e-11   3.8794418e-08  0              3.8794414e-08  0              0              0            
   2890000   3.8752662e-08  2.1187042e-15  3.8672585e-08  8.0077854e-11  3.8752665e-08  0              3.8752662e-08  0              0              0            
   2900000   3.8720302e-08  1.2752571e-15  3.8640209e-08  8.0092204e-11  3.8720303e-08  0              3.8720302e-08  0              0              0            
   2910000   3.869521e-08   7.6788573e-16  3.8615107e-08  8.010326e-11   3.8695211e-08  0              3.869521e-08   0              0              0            
   2920000   3.867575e-08   4.6251764e-16  3.8595638e-08  8.0111871e-11  3.867575e-08   0              3.867575e-08   0              0              0            
   2930000   3.8660652e-08  2.7865256e-16  3.8580534e-08  8.0118512e-11  3.8660653e-08  0              3.8660652e-08  0              0              0            
   2940000   3.8648938e-08  1.6791052e-16  3.8568814e-08  8.0123619e-11  3.8648938e-08  0              3.8648938e-08  0              0              0            
   2950000   3.8639846e-08  1.0119397e-16  3.8559718e-08  8.0127602e-11  3.8639846e-08  0              3.8639846e-08  0              0              0            
   2960000   3.863279e-08   6.0992917e-17  3.8552659e-08  8.0130702e-11  3.863279e-08   0              3.863279e-08   0              0              0            
   2970000   3.8627312e-08  3.6765591e-17  3.8547179e-08  8.0133153e-11  3.8627312e-08  0              3.8627312e-08  0              0              0            
   2980000   3.862306e-08   2.2163214e-17  3.8542925e-08  8.0135038e-11  3.862306e-08   0              3.862306e-08   0              0              0            
   2990000   3.8619759e-08  1.336123e-17   3.8539622e-08  8.0136495e-11  3.8619759e-08  0              3.8619759e-08  0              0              0            
   3000000   3.8617196e-08  8.0552199e-18  3.8537058e-08  8.0137618e-11  3.8617196e-08  0              3.8617196e-08  0              0              0            
   3010000   3.8615206e-08  4.856489e-18   3.8535067e-08  8.0138538e-11  3.8615206e-08  0              3.8615206e-08  0              0              0            
   3020000   3.861366e-08   2.9280599e-18  3.8533521e-08  8.0139112e-11  3.861366e-08   0              3.861366e-08   0              0              0            
   3030000   3.8612461e-08  1.7653908e-18  3.8532321e-08  8.0139745e-11  3.8612461e-08  0              3.8612461e-08  0              0              0            
   3040000   3.8611529e-08  1.064425e-18   3.8531389e-08  8.0140105e-11  3.8611529e-08  0              3.8611529e-08  0              0              0            
   3050000   3.8610806e-08  6.417969e-19   3.8530666e-08  8.0140359e-11  3.8610806e-08  0              3.8610806e-08  0              0              0            
   3060000   3.8610244e-08  3.8696205e-19  3.8530104e-08  8.0140712e-11  3.8610244e-08  0              3.8610244e-08  0              0              0            
   3070000   3.8609808e-08  2.33314e-19    3.8529668e-08  8.0140877e-11  3.8609808e-08  0              3.8609808e-08  0              0              0            
   3080000   3.860947e-08   1.4067325e-19  3.8529329e-08  8.0140999e-11  3.860947e-08   0              3.860947e-08   0              0              0            
   3090000   3.8609207e-08  8.4826268e-20  3.8529066e-08  8.0141159e-11  3.8609207e-08  0              3.8609207e-08  0              0              0            
   3100000   3.8609003e-08  5.1147911e-20  3.8528861e-08  8.0141196e-11  3.8609003e-08  0              3.8609003e-08  0              0              0            
   3110000   3.8608844e-08  3.0835949e-20  3.8528703e-08  8.014128e-11   3.8608844e-08  0              3.8608844e-08  0              0              0            
   3120000   3.8608721e-08  1.8595636e-20  3.852858e-08   8.014132e-11   3.8608721e-08  0              3.8608721e-08  0              0              0            
   3130000   3.8608625e-08  1.120984e-20   3.8528484e-08  8.0141362e-11  3.8608625e-08  0              3.8608625e-08  0              0              0            
   3140000   3.8608551e-08  6.7598222e-21  3.852841e-08   8.0141404e-11  3.8608551e-08  0              3.8608551e-08  0              0              0            
   3150000   3.8608494e-08  4.0773711e-21  3.8528352e-08  8.0141481e-11  3.8608494e-08  0              3.8608494e-08  0              0              0            
   3160000   3.8608449e-08  2.4575971e-21  3.8528307e-08  8.0141481e-11  3.8608449e-08  0              3.8608449e-08  0              0              0            
   3170000   3.8608414e-08  1.4813894e-21  3.8528273e-08  8.0141481e-11  3.8608414e-08  0              3.8608414e-08  0              0              0            
   3180000   3.8608387e-08  8.9407452e-22  3.8528246e-08  8.0141441e-11  3.8608387e-08  0              3.8608387e-08  0              0              0            
   3190000   3.8608366e-08  5.3886835e-22  3.8528225e-08  8.0141478e-11  3.8608366e-08  0              3.8608366e-08  0              0              0            
   3200000   3.860835e-08   3.2481274e-22  3.8528208e-08  8.0141523e-11  3.860835e-08   0              3.860835e-08   0              0              0            
   3210000   3.8608337e-08  1.9576302e-22  3.8528196e-08  8.0141523e-11  3.8608337e-08  0              3.8608337e-08  0              0              0            
   3220000   3.8608327e-08  1.1801262e-22  3.8528186e-08  8.0141478e-11  3.8608327e-08  0              3.8608327e-08  0              0              0            
   3230000   3.860832e-08   7.1135355e-23  3.8528178e-08  8.0141523e-11  3.860832e-08   0              3.860832e-08   0              0              0            
   3240000   3.8608314e-08  4.2873499e-23  3.8528172e-08  8.0141523e-11  3.8608314e-08  0              3.8608314e-08  0              0              0            
   3250000   3.8608309e-08  2.6127792e-23  3.8528168e-08  8.0141522e-11  3.8608309e-08  0              3.8608309e-08  0              0              0            
   3260000   3.8608306e-08  1.5751238e-23  3.8528164e-08  8.0141519e-11  3.8608306e-08  0              3.8608306e-08  0              0              0            
   3270000   3.8608303e-08  9.4927647e-24  3.8528161e-08  8.0141527e-11  3.8608303e-08  0              3.8608303e-08  0              0              0            
   3280000   3.8608301e-08  5.7482743e-24  3.8528159e-08  8.0141519e-11  3.8608301e-08  0              3.8608301e-08  0              0              0            
   3290000   3.8608299e-08  3.4495498e-24  3.8528158e-08  8.0141519e-11  3.8608299e-08  0              3.8608299e-08  0              0              0            
   3300000   3.8608298e-08  2.0828374e-24  3.8528156e-08  8.0141519e-11  3.8608298e-08  0              3.8608298e-08  0              0              0            
   3310000   3.8608297e-08  1.2638951e-24  3.8528155e-08  8.0141483e-11  3.8608297e-08  0              3.8608297e-08  0              0              0            
   3320000   3.8608296e-08  7.7859145e-25  3.8528154e-08  8.0141519e-11  3.8608296e-08  0              3.8608296e-08  0              0              0            
   3330000   3.8608295e-08  4.6659743e-25  3.8528154e-08  8.0141527e-11  3.8608295e-08  0              3.8608295e-08  0              0              0            
   3340000   3.8608295e-08  2.8570202e-25  3.8528153e-08  8.0141519e-11  3.8608295e-08  0              3.8608295e-08  0              0              0            
   3350000   3.8608295e-08  1.7653263e-25  3.8528153e-08  8.0141527e-11  3.8608295e-08  0              3.8608295e-08  0              0              0            
   3360000   3.8608294e-08  1.0031519e-25  3.8528153e-08  8.0141519e-11  3.8608294e-08  0              3.8608294e-08  0              0              0            
   3370000   3.8608294e-08  8.6968216e-26  3.8528153e-08  8.0141564e-11  3.8608294e-08  0              3.8608294e-08  0              0              0            
   3380000   3.8608294e-08  4.0845834e-26  3.8528152e-08  8.0141527e-11  3.8608294e-08  0              3.8608294e-08  0              0              0            
   3390000   3.8608294e-08  2.479447e-26   3.8528152e-08  8.0141564e-11  3.8608294e-08  0              3.8608294e-08  0              0              0            
   3400000   3.8608294e-08  4.2629454e-26  3.8528152e-08  8.0141564e-11  3.8608294e-08  0              3.8608294e-08  0              0              0            
   3410000   3.8608294e-08  9.8278658e-27  3.8528152e-08  8.0141519e-11  3.8608294e-08  0              3.8608294e-08  0              0              0            
   3420000   3.8608294e-08  6.310317e-26   3.8528152e-08  8.0141519e-11  3.8608294e-08  0              3.8608294e-08  0              0              0            
   3430000   3.8608293e-08  8.4456874e-27  3.8528152e-08  8.0141519e-11  3.8608293e-08  0              3.8608293e-08  0              0              0            
   3440000   3.8608293e-08  4.948568e-27   3.8528152e-08  8.0141519e-11  3.8608293e-08  0              3.8608293e-08  0              0              0            
   3450000   3.8608293e-08  3.2207752e-26  3.8528152e-08  8.0141519e-11  3.8608293e-08  0              3.8608293e-08  0              0              0            
   3460000   3.8608293e-08  2.5971234e-27  3.8528152e-08  8.0141519e-11  3.8608293e-08  0              3.8608293e-08  0              0              0            
   3470000   3.8608293e-08  2.4754677e-26  3.8528152e-08  8.0141519e-11  3.8608293e-08  0              3.8608293e-08  0              0              0            
   3480000   3.8608293e-08  9.4508354e-27  3.8528152e-08  8.0141519e-11  3.8608293e-08  0              3.8608293e-08  0              0              0            
   3490000   3.8608293e-08  2.1601903e-27  3.8528152e-08  8.0141519e-11  3.8608293e-08  0              3.8608293e-08  0              0              0            
   3500000   3.8608293e-08  9.9645084e-27  3.8528152e-08  8.0141519e-11  3.8608293e-08  0              3.8608293e-08  0              0              0            
   3510000   3.8608293e-08  6.5740695e-27  3.8528152e-08  8.0141519e-11  3.8608293e-08  0              3.8608293e-08  0              0              0            
   3520000   3.8608293e-08  3.7311725e-26  3.8528152e-08  8.0141483e-11  3.8608293e-08  0              3.8608293e-08  0              0              0            
   3530000   3.8608293e-08  9.1404815e-26  3.8528152e-08  8.0141519e-11  3.8608293e-08  0              3.8608293e-08  0              0              0            
   3540000   3.8608293e-08  1.4922183e-26  3.8528152e-08  8.0141519e-11  3.8608293e-08  0              3.8608293e-08  0              0              0            
   3550000   3.8608293e-08  1.4709621e-26  3.8528152e-08  8.0141519e-11  3.8608293e-08  0              3.8608293e-08  0              0              0            
   3560000   3.8608293e-08  1.3425009e-26  3.8528152e-08  8.0141519e-11  3.8608293e-08  0              3.8608293e-08  0              0              0            
   3570000   3.8608293e-08  4.6620315e-27  3.8528152e-08  8.0141564e-11  3.8608293e-08  0              3.8608293e-08  0              0              0            
   3580000   3.8608293e-08  1.3824896e-26  3.8528152e-08  8.0141527e-11  3.8608293e-08  0              3.8608293e-08  0              0              0            
   3590000   3.8608293e-08  5.2768616e-28  3.8528152e-08  8.0141519e-11  3.8608293e-08  0              3.8608293e-08  0              0              0            
   3600000   3.8608293e-08  8.4901169e-27  3.8528152e-08  8.0141564e-11  3.8608293e-08  0              3.8608293e-08  0              0              0            
   3610000   3.8608293e-08  2.4536822e-27  3.8528152e-08  8.0141519e-11  3.8608293e-08  0              3.8608293e-08  0              0              0            
   3620000   3.8608293e-08  5.4343706e-26  3.8528152e-08  8.0141564e-11  3.8608293e-08  0              3.8608293e-08  0              0              0            
   3630000   3.8608293e-08  3.9098589e-26  3.8528152e-08  8.0141519e-11  3.8608293e-08  0              3.8608293e-08  0              0              0            
   3640000   3.8608293e-08  2.7123213e-26  3.8528152e-08  8.0141519e-11  3.8608293e-08  0              3.8608293e-08  0              0              0            
   3650000   3.8608293e-08  2.1537577e-27  3.8528152e-08  8.0141519e-11  3.8608293e-08  0              3.8608293e-08  0              0              0            
   3660000   3.8608293e-08  6.1004979e-27  3.8528152e-08  8.0141519e-11  3.8608293e-08  0              3.8608293e-08  0              0              0            
   3670000   3.8608293e-08  1.7247148e-26  3.8528152e-08  8.0141527e-11  3.8608293e-08  0              3.8608293e-08  0              0              0            
   3680000   3.8608293e-08  4.6767968e-26  3.8528152e-08  8.0141564e-11  3.8608293e-08  0              3.8608293e-08  0              0              0            
   3690000   3.8608293e-08  1.3980887e-26  3.8528152e-08  8.0141519e-11  3.8608293e-08  0              3.8608293e-08  0              0              0            
   3700000   3.8608293e-08  1.7520694e-26  3.8528152e-08  8.0141519e-11  3.8608293e-08  0              3.8608293e-08  0              0              0            
   3710000   3.8608293e-08  2.3865238e-27  3.8528152e-08  8.0141527e-11  3.8608293e-08  0              3.8608293e-08  0              0              0            
   3720000   3.8608293e-08  5.1052804e-27  3.8528152e-08  8.0141564e-11  3.8608293e-08  0              3.8608293e-08  0              0              0            
   3730000   3.8608293e-08  4.9119235e-27  3.8528152e-08  8.0141564e-11  3.8608293e-08  0              3.8608293e-08  0              0              0            
   3740000   3.8608293e-08  1.2046693e-26  3.8528152e-08  8.0141519e-11  3.8608293e-08  0              3.8608293e-08  0              0              0            
   3750000   3.8608293e-08  2.1723981e-26  3.8528152e-08  8.0141519e-11  3.8608293e-08  0              3.8608293e-08  0              0              0            
   3760000   3.8608293e-08  1.8035785e-26  3.8528152e-08  8.0141564e-11  3.8608293e-08  0              3.8608293e-08  0              0              0            
   3770000   3.8608293e-08  1.1641037e-26  3.8528152e-08  8.0141527e-11  3.8608293e-08  0              3.8608293e-08  0              0              0            
   3780000   3.8608293e-08  2.9449078e-27  3.8528152e-08  8.0141519e-11  3.8608293e-08  0              3.8608293e-08  0              0              0            
   3790000   3.8608293e-08  1.3429191e-26  3.8528152e-08  8.0141527e-11  3.8608293e-08  0              3.8608293e-08  0              0              0            
   3800000   3.8608293e-08  5.7879752e-29  3.8528152e-08  8.0141519e-11  3.8608293e-08  0              3.8608293e-08  0              0              0            
   3810000   3.8608293e-08  8.352977e-28   3.8528152e-08  8.0141519e-11  3.8608293e-08  0              3.8608293e-08  0              0              0            
   3820000   3.8608293e-08  1.1521997e-26  3.8528152e-08  8.0141564e-11  3.8608293e-08  0              3.8608293e-08  0              0              0            
   3830000   3.8608293e-08  1.6638309e-27  3.8528152e-08  8.0141527e-11  3.8608293e-08  0              3.8608293e-08  0              0              0            
   3840000   3.8608293e-08  1.4955691e-27  3.8528152e-08  8.0141519e-11  3.8608293e-08  0              3.8608293e-08  0              0              0            
   3850000   3.8608293e-08  2.6098763e-26  3.8528152e-08  8.0141519e-11  3.8608293e-08  0              3.8608293e-08  0              0              0            
   3860000   3.8608293e-08  1.0902196e-26  3.8528152e-08  8.0141519e-11  3.8608293e-08  0              3.8608293e-08  0              0              0            
   3870000   3.8608293e-08  1.5976876e-26  3.8528152e-08  8.0141519e-11  3.8608293e-08  0              3.8608293e-08  0              0              0            
   3880000   3.8608293e-08  3.0118745e-26  3.8528152e-08  8.0141519e-11  3.8608293e-08  0              3.8608293e-08  0              0              0            
   3890000   3.8608293e-08  3.7389545e-26  3.8528152e-08  8.0141519e-11  3.8608293e-08  0              3.8608293e-08  0              0              0            
   3900000   3.8608293e-08  2.9962173e-26  3.8528152e-08  8.0141527e-11  3.8608293e-08  0              3.8608293e-08  0              0              0            
   3910000   3.8608293e-08  2.0484321e-27  3.8528152e-08  8.0141519e-11  3.8608293e-08  0              3.8608293e-08  0              0              0            
   3920000   3.8608293e-08  1.6700721e-26  3.8528152e-08  8.0141519e-11  3.8608293e-08  0              3.8608293e-08  0              0              0            
   3930000   3.8608293e-08  4.7578212e-26  3.8528152e-08  8.0141564e-11  3.8608293e-08  0              3.8608293e-08  0              0              0            
   3940000   3.8608293e-08  2.4583825e-26  3.8528152e-08  8.0141519e-11  3.8608293e-08  0              3.8608293e-08  0              0              0            
   3950000   3.8608293e-08  7.7114196e-27  3.8528152e-08  8.0141519e-11  3.8608293e-08  0              3.8608293e-08  0              0              0            
   3960000   3.8608293e-08  4.0773001e-27  3.8528152e-08  8.0141519e-11  3.8608293e-08  0              3.8608293e-08  0              0              0            
   3970000   3.8608293e-08  1.5430938e-26  3.8528152e-08  8.0141519e-11  3.8608293e-08  0              3.8608293e-08  0              0              0            
   3980000   3.8608293e-08  3.3432927e-26  3.8528152e-08  8.0141527e-11  3.8608293e-08  0              3.8608293e-08  0              0              0            
   3990000   3.8608293e-08  2.5866988e-28  3.8528152e-08  8.0141519e-11  3.8608293e-08  0              3.8608293e-08  0              0              0            
   4000000   3.8608293e-08  4.1093315e-28  3.8528152e-08  8.0141519e-11  3.8608293e-08  0              3.8608293e-08  0              0              0            
   4010000   3.8608293e-08  1.0102487e-26  3.8528152e-08  8.0141564e-11  3.8608293e-08  0              3.8608293e-08  0              0              0            
   4020000   3.8608293e-08  3.9619188e-27  3.8528152e-08  8.0141519e-11  3.8608293e-08  0              3.8608293e-08  0              0              0            
   4030000   3.8608293e-08  1.4142952e-26  3.8528152e-08  8.0141564e-11  3.8608293e-08  0              3.8608293e-08  0              0              0            
   4040000   3.8608293e-08  1.154596e-26   3.8528152e-08  8.0141519e-11  3.8608293e-08  0              3.8608293e-08  0              0              0            
   4050000   3.8608293e-08  1.8805044e-27  3.8528152e-08  8.0141519e-11  3.8608293e-08  0              3.8608293e-08  0              0              0            
   4060000   3.8608293e-08  2.8495563e-27  3.8528152e-08  8.0141564e-11  3.8608293e-08  0              3.8608293e-08  0              0              0            
   4070000   3.8608293e-08  1.7087536e-27  3.8528152e-08  8.0141564e-11  3.8608293e-08  0              3.8608293e-08  0              0              0            
   4080000   3.8608293e-08  1.5975829e-27  3.8528152e-08  8.0141519e-11  3.8608293e-08  0              3.8608293e-08  0              0              0            
   4090000   3.8608293e-08  1.8577428e-27  3.8528152e-08  8.0141519e-11  3.8608293e-08  0              3.8608293e-08  0              0              0            
   4100000   3.8608293e-08  1.1493821e-26  3.8528152e-08  8.0141564e-11  3.8608293e-08  0              3.8608293e-08  0              0              0            
   4110000   3.8608293e-08  1.1754503e-26  3.8528152e-08  8.0141527e-11  3.8608293e-08  0              3.8608293e-08  0              0              0            
   4120000   3.8608293e-08  1.2669502e-26  3.8528152e-08  8.0141519e-11  3.8608293e-08  0              3.8608293e-08  0              0              0            
   4130000   3.8608293e-08  9.7351701e-26  3.8528152e-08  8.0141564e-11  3.8608293e-08  0              3.8608293e-08  0              0              0            
   4140000   3.8608293e-08  7.410656e-26   3.8528152e-08  8.0141519e-11  3.8608293e-08  0              3.8608293e-08  0              0              0            
   4150000   3.8608293e-08  1.2480648e-26  3.8528152e-08  8.0141519e-11  3.8608293e-08  0              3.8608293e-08  0              0              0            
   4160000   3.8608293e-08  1.3279601e-26  3.8528152e-08  8.0141519e-11  3.8608293e-08  0              3.8608293e-08  0              0              0            
   4170000   3.8608293e-08  2.0862591e-26  3.8528152e-08  8.0141519e-11  3.8608293e-08  0              3.8608293e-08  0              0              0            
   4180000   3.8608293e-08  9.5666633e-26  3.8528152e-08  8.0141519e-11  3.8608293e-08  0              3.8608293e-08  0              0              0            
   4190000   3.8608293e-08  9.7535482e-28  3.8528152e-08  8.0141519e-11  3.8608293e-08  0              3.8608293e-08  0              0              0            
   4200000   3.8608293e-08  3.2435401e-27  3.8528152e-08  8.0141519e-11  3.8608293e-08  0              3.8608293e-08  0              0              0            
   4210000   3.8608293e-08  2.9621012e-27  3.8528152e-08  8.0141519e-11  3.8608293e-08  0              3.8608293e-08  0              0              0            
   4220000   3.8608293e-08  6.5690876e-27  3.8528152e-08  8.0141519e-11  3.8608293e-08  0              3.8608293e-08  0              0              0            
   4230000   3.8608293e-08  5.7651476e-26  3.8528152e-08  8.0141483e-11  3.8608293e-08  0              3.8608293e-08  0              0              0            
   4240000   3.8608293e-08  4.5757741e-27  3.8528152e-08  8.0141519e-11  3.8608293e-08  0              3.8608293e-08  0              0              0            
   4250000   3.8608293e-08  7.8042499e-26  3.8528152e-08  8.0141519e-11  3.8608293e-08  0              3.8608293e-08  0              0              0            
   4260000   3.8608293e-08  9.376719e-27   3.8528152e-08  8.0141519e-11  3.8608293e-08  0              3.8608293e-08  0              0              0            
   4270000   3.8608293e-08  4.5763887e-27  3.8528152e-08  8.0141527e-11  3.8608293e-08  0              3.8608293e-08  0              0              0            
   4280000   3.8608293e-08  2.0803434e-27  3.8528152e-08  8.0141519e-11  3.8608293e-08  0              3.8608293e-08  0              0              0            
   4290000   3.8608293e-08  2.9523059e-26  3.8528152e-08  8.0141519e-11  3.8608293e-08  0              3.8608293e-08  0              0              0            
   4300000   3.8608293e-08  2.8199991e-26  3.8528152e-08  8.0141519e-11  3.8608293e-08  0              3.8608293e-08  0              0              0            
   4310000   3.8608293e-08  7.5060399e-26  3.8528152e-08  8.0141519e-11  3.8608293e-08  0              3.8608293e-08  0              0              0            
   4320000   3.8608293e-08  3.0265096e-26  3.8528152e-08  8.0141527e-11  3.8608293e-08  0              3.8608293e-08  0              0              0            
   4330000   3.8608293e-08  4.2876562e-26  3.8528152e-08  8.0141519e-11  3.8608293e-08  0              3.8608293e-08  0              0              0            
[...]
   4690000   3.8608293e-08  6.9327357e-27  3.8528152e-08  8.0141483e-11  3.8608293e-08  0              3.8608293e-08  0              0              0            
   4700000   3.8608293e-08  3.0190235e-27  3.8528152e-08  8.0141564e-11  3.8608293e-08  0              3.8608293e-08  0              0              0            
   4710000   3.8608293e-08  7.1066842e-27  3.8528152e-08  8.0141564e-11  3.8608293e-08  0              3.8608293e-08  0              0              0            
   4720000   3.8608293e-08  1.8790741e-26  3.8528152e-08  8.0141519e-11  3.8608293e-08  0              3.8608293e-08  0              0              0            
   4730000   3.8608293e-08  2.0040001e-26  3.8528152e-08  8.0141519e-11  3.8608293e-08  0              3.8608293e-08  0              0              0            
   4740000   3.8608293e-08  1.1563367e-26  3.8528152e-08  8.0141527e-11  3.8608293e-08  0              3.8608293e-08  0              0              0            
   4750000   3.8608293e-08  4.1428032e-27  3.8528152e-08  8.0141519e-11  3.8608293e-08  0              3.8608293e-08  0              0              0            
   4760000   3.8608293e-08  1.4947891e-27  3.8528152e-08  8.0141519e-11  3.8608293e-08  0              3.8608293e-08  0              0              0            
   4770000   3.8608293e-08  4.8202849e-27  3.8528152e-08  8.0141519e-11  3.8608293e-08  0              3.8608293e-08  0              0              0            
   4780000   3.8608293e-08  2.6829127e-27  3.8528152e-08  8.0141564e-11  3.8608293e-08  0              3.8608293e-08  0              0              0            
   4790000   3.8608293e-08  6.2337563e-27  3.8528152e-08  8.0141519e-11  3.8608293e-08  0              3.8608293e-08  0              0              0            
   4800000   3.8608293e-08  1.4778653e-26  3.8528152e-08  8.0141519e-11  3.8608293e-08  0              3.8608293e-08  0              0              0            
   4810000   3.8608293e-08  4.1239866e-26  3.8528152e-08  8.0141564e-11  3.8608293e-08  0              3.8608293e-08  0              0              0            
   4820000   3.8608293e-08  4.316835e-26   3.8528152e-08  8.0141564e-11  3.8608293e-08  0              3.8608293e-08  0              0              0            
   4830000   3.8608293e-08  2.1745526e-26  3.8528152e-08  8.0141519e-11  3.8608293e-08  0              3.8608293e-08  0              0              0            
   4840000   3.8608293e-08  2.2602543e-27  3.8528152e-08  8.0141519e-11  3.8608293e-08  0              3.8608293e-08  0              0              0            
   4850000   3.8608293e-08  5.8740433e-27  3.8528152e-08  8.0141519e-11  3.8608293e-08  0              3.8608293e-08  0              0              0            
   4860000   3.8608293e-08  3.0260599e-26  3.8528152e-08  8.0141519e-11  3.8608293e-08  0              3.8608293e-08  0              0              0            
   4870000   3.8608293e-08  6.1786858e-27  3.8528152e-08  8.0141519e-11  3.8608293e-08  0              3.8608293e-08  0              0              0            
   4880000   3.8608293e-08  7.7643444e-26  3.8528152e-08  8.0141519e-11  3.8608293e-08  0              3.8608293e-08  0              0              0            
   4890000   3.8608293e-08  6.0966481e-27  3.8528152e-08  8.0141519e-11  3.8608293e-08  0              3.8608293e-08  0              0              0            
   4900000   3.8608293e-08  3.5065604e-26  3.8528152e-08  8.0141564e-11  3.8608293e-08  0              3.8608293e-08  0              0              0            
   4910000   3.8608293e-08  1.3716507e-27  3.8528152e-08  8.0141519e-11  3.8608293e-08  0              3.8608293e-08  0              0              0            
   4920000   3.8608293e-08  4.6308148e-26  3.8528152e-08  8.0141483e-11  3.8608293e-08  0              3.8608293e-08  0              0              0            
   4930000   3.8608293e-08  4.8811513e-28  3.8528152e-08  8.0141519e-11  3.8608293e-08  0              3.8608293e-08  0              0              0            
   4940000   3.8608293e-08  5.3068721e-27  3.8528152e-08  8.0141519e-11  3.8608293e-08  0              3.8608293e-08  0              0              0            
   4950000   3.8608293e-08  1.0694571e-25  3.8528152e-08  8.0141519e-11  3.8608293e-08  0              3.8608293e-08  0              0              0            
   4960000   3.8608293e-08  4.286632e-27   3.8528152e-08  8.0141519e-11  3.8608293e-08  0              3.8608293e-08  0              0              0            
   4970000   3.8608293e-08  8.0299859e-27  3.8528152e-08  8.0141519e-11  3.8608293e-08  0              3.8608293e-08  0              0              0            
   4980000   3.8608293e-08  1.9623395e-27  3.8528152e-08  8.0141519e-11  3.8608293e-08  0              3.8608293e-08  0              0              0            
   4990000   3.8608293e-08  1.1342197e-27  3.8528152e-08  8.0141519e-11  3.8608293e-08  0              3.8608293e-08  0              0              0            
   5000000   3.8608293e-08  4.5223595e-26  3.8528152e-08  8.0141519e-11  3.8608293e-08  0              3.8608293e-08  0              0              0            
   5010000   3.8608293e-08  1.0167335e-26  3.8528152e-08  8.0141483e-11  3.8608293e-08  0              3.8608293e-08  0              0              0            
   5020000   3.8608293e-08  5.3897186e-27  3.8528152e-08  8.0141519e-11  3.8608293e-08  0              3.8608293e-08  0              0              0            
   5030000   3.8608293e-08  1.1835486e-26  3.8528152e-08  8.0141519e-11  3.8608293e-08  0              3.8608293e-08  0              0              0            
   5040000   3.8608293e-08  1.1563452e-26  3.8528152e-08  8.0141564e-11  3.8608293e-08  0              3.8608293e-08  0              0              0            
   5050000   3.8608293e-08  2.8528739e-27  3.8528152e-08  8.0141519e-11  3.8608293e-08  0              3.8608293e-08  0              0              0            
   5060000   3.8608293e-08  1.1442632e-25  3.8528152e-08  8.0141519e-11  3.8608293e-08  0              3.8608293e-08  0              0              0            
   5070000   3.8608293e-08  2.9281109e-26  3.8528152e-08  8.0141519e-11  3.8608293e-08  0              3.8608293e-08  0              0              0            
   5080000   3.8608293e-08  8.3944262e-28  3.8528152e-08  8.0141527e-11  3.8608293e-08  0              3.8608293e-08  0              0              0            
   5090000   3.8608293e-08  3.7235945e-27  3.8528152e-08  8.0141519e-11  3.8608293e-08  0              3.8608293e-08  0              0              0            
   5100000   3.8608293e-08  1.1424218e-26  3.8528152e-08  8.0141519e-11  3.8608293e-08  0              3.8608293e-08  0              0              0            
   5110000   3.8608293e-08  9.8109934e-27  3.8528152e-08  8.0141519e-11  3.8608293e-08  0              3.8608293e-08  0              0              0            
   5120000   3.8608293e-08  1.94468e-26    3.8528152e-08  8.0141519e-11  3.8608293e-08  0              3.8608293e-08  0              0              0            
   5130000   3.8608293e-08  7.2105652e-27  3.8528152e-08  8.0141519e-11  3.8608293e-08  0              3.8608293e-08  0              0              0            
   5140000   3.8608293e-08  1.3478509e-28  3.8528152e-08  8.0141519e-11  3.8608293e-08  0              3.8608293e-08  0              0              0            
   5150000   3.8608293e-08  3.5550137e-27  3.8528152e-08  8.0141519e-11  3.8608293e-08  0              3.8608293e-08  0              0              0            
   5160000   3.8608293e-08  9.6530995e-27  3.8528152e-08  8.0141564e-11  3.8608293e-08  0              3.8608293e-08  0              0              0            
   5170000   3.8608293e-08  2.9888868e-26  3.8528152e-08  8.0141519e-11  3.8608293e-08  0              3.8608293e-08  0              0              0            
   5180000   3.8608293e-08  3.4407178e-26  3.8528152e-08  8.0141483e-11  3.8608293e-08  0              3.8608293e-08  0              0              0            
   5190000   3.8608293e-08  2.6184461e-26  3.8528152e-08  8.0141519e-11  3.8608293e-08  0              3.8608293e-08  0              0              0            
   5200000   3.8608293e-08  1.3890757e-26  3.8528152e-08  8.0141519e-11  3.8608293e-08  0              3.8608293e-08  0              0              0            
   5210000   3.8608293e-08  4.209434e-27   3.8528152e-08  8.0141519e-11  3.8608293e-08  0              3.8608293e-08  0              0              0            
   5220000   3.8608293e-08  2.9382655e-27  3.8528152e-08  8.0141519e-11  3.8608293e-08  0              3.8608293e-08  0              0              0            
   5230000   3.8608293e-08  4.6235389e-26  3.8528152e-08  8.0141519e-11  3.8608293e-08  0              3.8608293e-08  0              0              0            
   5240000   3.8608293e-08  1.8225508e-27  3.8528152e-08  8.0141519e-11  3.8608293e-08  0              3.8608293e-08  0              0              0            
   5250000   3.8608293e-08  9.2662302e-27  3.8528152e-08  8.0141519e-11  3.8608293e-08  0              3.8608293e-08  0              0              0            
   5260000   3.8608293e-08  3.1309469e-26  3.8528152e-08  8.0141519e-11  3.8608293e-08  0              3.8608293e-08  0              0              0            
   5270000   3.8608293e-08  2.3676709e-26  3.8528152e-08  8.0141519e-11  3.8608293e-08  0              3.8608293e-08  0              0              0            
   5280000   3.8608293e-08  1.7579872e-27  3.8528152e-08  8.0141519e-11  3.8608293e-08  0              3.8608293e-08  0              0              0            
   5290000   3.8608293e-08  4.736787e-27   3.8528152e-08  8.0141527e-11  3.8608293e-08  0              3.8608293e-08  0              0              0            
   5300000   3.8608293e-08  1.1584037e-26  3.8528152e-08  8.0141519e-11  3.8608293e-08  0              3.8608293e-08  0              0              0            
   5310000   3.8608293e-08  1.1152484e-26  3.8528152e-08  8.0141519e-11  3.8608293e-08  0              3.8608293e-08  0              0              0            
   5320000   3.8608293e-08  1.0290304e-25  3.8528152e-08  8.0141519e-11  3.8608293e-08  0              3.8608293e-08  0              0              0            
   5330000   3.8608293e-08  1.7689321e-26  3.8528152e-08  8.0141519e-11  3.8608293e-08  0              3.8608293e-08  0              0              0            
   5340000   3.8608293e-08  1.6845376e-26  3.8528152e-08  8.0141519e-11  3.8608293e-08  0              3.8608293e-08  0              0              0            
   5350000   3.8608293e-08  1.8986221e-26  3.8528152e-08  8.0141519e-11  3.8608293e-08  0              3.8608293e-08  0              0              0            
   5360000   3.8608293e-08  3.1083921e-26  3.8528152e-08  8.0141519e-11  3.8608293e-08  0              3.8608293e-08  0              0              0            
   5370000   3.8608293e-08  1.5153906e-27  3.8528152e-08  8.0141564e-11  3.8608293e-08  0              3.8608293e-08  0              0              0            
   5380000   3.8608293e-08  7.9937501e-28  3.8528152e-08  8.0141519e-11  3.8608293e-08  0              3.8608293e-08  0              0              0            
   5390000   3.8608293e-08  3.1297808e-26  3.8528152e-08  8.0141519e-11  3.8608293e-08  0              3.8608293e-08  0              0              0            
   5400000   3.8608293e-08  3.4427997e-26  3.8528152e-08  8.0141519e-11  3.8608293e-08  0              3.8608293e-08  0              0              0            
   5410000   3.8608293e-08  8.5639427e-28  3.8528152e-08  8.0141519e-11  3.8608293e-08  0              3.8608293e-08  0              0              0            
   5420000   3.8608293e-08  5.4297988e-26  3.8528152e-08  8.0141519e-11  3.8608293e-08  0              3.8608293e-08  0              0              0            
   5430000   3.8608293e-08  2.3810866e-26  3.8528152e-08  8.0141527e-11  3.8608293e-08  0              3.8608293e-08  0              0              0            
   5440000   3.8608293e-08  6.4002381e-27  3.8528152e-08  8.0141519e-11  3.8608293e-08  0              3.8608293e-08  0              0              0            
   5450000   3.8608293e-08  4.9176569e-27  3.8528152e-08  8.0141519e-11  3.8608293e-08  0              3.8608293e-08  0              0              0            
   5460000   3.8608293e-08  4.8884365e-27  3.8528152e-08  8.0141564e-11  3.8608293e-08  0              3.8608293e-08  0              0              0            
   5470000   3.8608293e-08  8.0408753e-27  3.8528152e-08  8.0141527e-11  3.8608293e-08  0              3.8608293e-08  0              0              0            
   5480000   3.8608293e-08  1.3222055e-26  3.8528152e-08  8.0141519e-11  3.8608293e-08  0              3.8608293e-08  0              0              0            
   5490000   3.8608293e-08  1.3344992e-26  3.8528152e-08  8.0141519e-11  3.8608293e-08  0              3.8608293e-08  0              0              0            
   5500000   3.8608293e-08  3.9866707e-26  3.8528152e-08  8.0141564e-11  3.8608293e-08  0              3.8608293e-08  0              0              0            
   5510000   3.8608293e-08  1.7533098e-27  3.8528152e-08  8.0141527e-11  3.8608293e-08  0              3.8608293e-08  0              0              0            
   5520000   3.8608293e-08  2.7642367e-27  3.8528152e-08  8.0141519e-11  3.8608293e-08  0              3.8608293e-08  0              0              0            
   5530000   3.8608293e-08  1.7915518e-26  3.8528152e-08  8.0141564e-11  3.8608293e-08  0              3.8608293e-08  0              0              0            
   5540000   3.8608293e-08  5.7077309e-27  3.8528152e-08  8.0141527e-11  3.8608293e-08  0              3.8608293e-08  0              0              0            
   5550000   3.8608293e-08  2.2277209e-27  3.8528152e-08  8.0141519e-11  3.8608293e-08  0              3.8608293e-08  0              0              0            
   5560000   3.8608293e-08  1.3641299e-26  3.8528152e-08  8.0141519e-11  3.8608293e-08  0              3.8608293e-08  0              0              0            
   5570000   3.8608293e-08  1.6844758e-26  3.8528152e-08  8.0141519e-11  3.8608293e-08  0              3.8608293e-08  0              0              0            
   5580000   3.8608293e-08  3.7295076e-26  3.8528152e-08  8.0141527e-11  3.8608293e-08  0              3.8608293e-08  0              0              0            
   5590000   3.8608293e-08  3.7253392e-26  3.8528152e-08  8.0141519e-11  3.8608293e-08  0              3.8608293e-08  0              0              0            
   5600000   3.8608293e-08  5.4012245e-26  3.8528152e-08  8.0141527e-11  3.8608293e-08  0              3.8608293e-08  0              0              0            
   5610000   3.8608293e-08  1.7062427e-27  3.8528152e-08  8.0141519e-11  3.8608293e-08  0              3.8608293e-08  0              0              0            
   5620000   3.8608293e-08  4.0267704e-28  3.8528152e-08  8.0141564e-11  3.8608293e-08  0              3.8608293e-08  0              0              0            
   5630000   3.8608293e-08  8.0478189e-28  3.8528152e-08  8.0141519e-11  3.8608293e-08  0              3.8608293e-08  0              0              0            
   5640000   3.8608293e-08  8.9978106e-27  3.8528152e-08  8.0141564e-11  3.8608293e-08  0              3.8608293e-08  0              0              0            
   5650000   3.8608293e-08  2.0087062e-26  3.8528152e-08  8.0141519e-11  3.8608293e-08  0              3.8608293e-08  0              0              0            
   5660000   3.8608293e-08  5.0162125e-27  3.8528152e-08  8.0141519e-11  3.8608293e-08  0              3.8608293e-08  0              0              0            
   5670000   3.8608293e-08  5.4549407e-26  3.8528152e-08  8.0141519e-11  3.8608293e-08  0              3.8608293e-08  0              0              0            
   5680000   3.8608293e-08  5.993635e-26   3.8528152e-08  8.0141519e-11  3.8608293e-08  0              3.8608293e-08  0              0              0            
   5690000   3.8608293e-08  5.0116651e-27  3.8528152e-08  8.0141527e-11  3.8608293e-08  0              3.8608293e-08  0              0              0            
   5700000   3.8608293e-08  1.1035683e-26  3.8528152e-08  8.0141519e-11  3.8608293e-08  0              3.8608293e-08  0              0              0            
   5710000   3.8608293e-08  8.6452953e-27  3.8528152e-08  8.0141564e-11  3.8608293e-08  0              3.8608293e-08  0              0              0            
   5720000   3.8608293e-08  8.9494275e-27  3.8528152e-08  8.0141519e-11  3.8608293e-08  0              3.8608293e-08  0              0              0            
   5730000   3.8608293e-08  6.4862573e-27  3.8528152e-08  8.0141483e-11  3.8608293e-08  0              3.8608293e-08  0              0              0            
   5740000   3.8608293e-08  2.1657346e-26  3.8528152e-08  8.0141519e-11  3.8608293e-08  0              3.8608293e-08  0              0              0            
   5750000   3.8608293e-08  1.716796e-26   3.8528152e-08  8.0141519e-11  3.8608293e-08  0              3.8608293e-08  0              0              0            
   5760000   3.8608293e-08  1.4734638e-26  3.8528152e-08  8.0141519e-11  3.8608293e-08  0              3.8608293e-08  0              0              0            
   5770000   3.8608293e-08  9.7888925e-27  3.8528152e-08  8.0141519e-11  3.8608293e-08  0              3.8608293e-08  0              0              0            
   5780000   3.8608293e-08  1.3527336e-26  3.8528152e-08  8.0141519e-11  3.8608293e-08  0              3.8608293e-08  0              0              0            
   5790000   3.8608293e-08  8.3242358e-27  3.8528152e-08  8.0141519e-11  3.8608293e-08  0              3.8608293e-08  0              0              0            
   5800000   3.8608293e-08  3.2723774e-27  3.8528152e-08  8.0141519e-11  3.8608293e-08  0              3.8608293e-08  0              0              0            
   5810000   3.8608293e-08  2.4844684e-26  3.8528152e-08  8.0141519e-11  3.8608293e-08  0              3.8608293e-08  0              0              0            
   5820000   3.8608293e-08  3.2535349e-26  3.8528152e-08  8.0141527e-11  3.8608293e-08  0              3.8608293e-08  0              0              0            
   5830000   3.8608293e-08  1.6149685e-27  3.8528152e-08  8.0141527e-11  3.8608293e-08  0              3.8608293e-08  0              0              0            
   5840000   3.8608293e-08  2.2071818e-27  3.8528152e-08  8.0141519e-11  3.8608293e-08  0              3.8608293e-08  0              0              0            
   5850000   3.8608293e-08  5.6673186e-26  3.8528152e-08  8.0141564e-11  3.8608293e-08  0              3.8608293e-08  0              0              0            
   5860000   3.8608293e-08  2.168986e-27   3.8528152e-08  8.0141483e-11  3.8608293e-08  0              3.8608293e-08  0              0              0            
   5870000   3.8608293e-08  4.2322381e-28  3.8528152e-08  8.0141564e-11  3.8608293e-08  0              3.8608293e-08  0              0              0            
   5880000   3.8608293e-08  3.6771335e-26  3.8528152e-08  8.0141519e-11  3.8608293e-08  0              3.8608293e-08  0              0              0            
   5890000   3.8608293e-08  7.0774406e-27  3.8528152e-08  8.0141519e-11  3.8608293e-08  0              3.8608293e-08  0              0              0            
   5900000   3.8608293e-08  8.1337637e-27  3.8528152e-08  8.0141519e-11  3.8608293e-08  0              3.8608293e-08  0              0              0            
   5910000   3.8608293e-08  1.560673e-26   3.8528152e-08  8.0141519e-11  3.8608293e-08  0              3.8608293e-08  0              0              0            
