LAMMPS data file via write_data, version 22 Jul 2025, timestep = 0, units = si

3 atoms
1 atom types
2 bonds
1 bond types
1 angles
1 angle types

0 1 xlo xhi
0 1 ylo yhi
0 1 zlo zhi

Masses

1 0

Pair Coeffs # zero

1

Bond Coeffs # fene

1 100000 0.001 0.001 0.001

Angle Coeffs # harmonic

1 100000 38

Atoms # hybrid

1 1 0.45 0.5 0.5 0.001 1180 1 0 0 0
2 1 0.5 0.5 0.5 0.001 1180 1 0 0 0
3 1 0.55 0.5 0.5 0.001 1180 1 0 0 0

Velocities

1 0 0 0 0 0 0
2 0 0 0 0 0 0
3 0 0 0 0 0 0

Bonds

1 1 1 2
2 1 2 3

Angles

1 1 1 2 3
