LAMMPS data file via write_data, version Version LIGGGHTS-PUBLIC 3.8.0, compiled 2025-09-22-20:50:23 by palash, git commit 3d5c00f20519e6bb6eb6756f51f1ad36564e649d, timestep = 0

2 atoms
1 atom types

0.0000000000000000e+00 1.0000000000000000e+00 xlo xhi
0.0000000000000000e+00 1.0000000000000000e+00 ylo yhi
0.0000000000000000e+00 1.0000000000000000e+00 zlo zhi

Masses

1 1

Atoms

1 1 5.0000000000000000e-01 5.0000000000000000e-01 5.0000000000000000e-01 1.0000000000000000e-03 1.1800000000000000e+03 0 0 0 0
1 1 5.0000000000000000e-01 5.0000000000000000e-01 5.0000000000000000e-01 1.0000000000000000e-03 1.1800000000000000e+03 0 0 0 0

Velocities

1 0 0 0 0.0000000000000000e+00 0.0000000000000000e+00 0.0000000000000000e+00
1 0 0 0 0.0000000000000000e+00 0.0000000000000000e+00 0.0000000000000000e+00
