LAMMPS data file for brass chain of 11 beads

1 atom types
11 atoms
1 bond types
10 bonds
1 angle types
9 angles

-0.05 0.05 xlo xhi
-0.05 0.05 ylo yhi
 0.00 0.10 zlo zhi

Atoms # hybrid sphere molecular
1  1  0.0 0.0 0.0750  1 0.002 8500
2  1  0.0 0.0 0.0725  1 0.002 8500
3  1  0.0 0.0 0.0700  1 0.002 8500
4  1  0.0 0.0 0.0675  1 0.002 8500
5  1  0.0 0.0 0.0650  1 0.002 8500
6  1  0.0 0.0 0.0625  1 0.002 8500
7  1  0.0 0.0 0.0600  1 0.002 8500
8  1  0.0 0.0 0.0575  1 0.002 8500
9  1  0.0 0.0 0.0550  1 0.002 8500
10 1  0.0 0.0 0.0525  1 0.002 8500
11 1  0.0 0.0 0.0500  1 0.002 8500
12 1  0.0 0.0 0.0475  1 0.002 8500

Bonds
1 1 1 2
2 1 2 3
3 1 3 4
4 1 4 5
5 1 5 6
6 1 6 7
7 1 7 8
8 1 8 9
9 1 9 10
10 1 10 11
11 1 11 12

Angles
1 1 1 2 3
2 1 2 3 4
3 1 3 4 5
4 1 4 5 6
5 1 5 6 7
6 1 6 7 8
7 1 7 8 9
8 1 8 9 10
9 1 9 10 11
10 1 10 11 12

