LAMMPS data file for brass chain of 3 beads

3 atoms
1 atom types
2 bonds
1 bond types
1 angles
1 angle types

-0.05 0.05 xlo xhi
-0.05 0.05 ylo yhi
 0.00 0.10 zlo zhi

Masses

1 3e-05

Atoms # hybrid sphere molecular

1  1  0.0 0.0 0.0750  1 0.002 8500
2  1  0.0 0.0 0.0725  1 0.002 8500
3  1  0.0 0.0 0.0700  1 0.002 8500

Bonds

1 1 1 2
2 1 2 3

Angles

1 1 1 2 3
