LAMMPS data file for brass chain of 4 beads

1 atom types
4 atoms
1 bond types
3 bonds
1 angle types
2 angles

-0.05 0.05 xlo xhi
-0.05 0.05 ylo yhi
 0.00 0.10 zlo zhi

Masses

1 3e-05

Atoms # hybrid sphere angle

1  1  0.0 0.0 0.0750  0.002 708.47 1 0 0 0 # id type xyz dia density
2  1  0.0 0.0 0.0725  0.002 708.47 1 0 0 0 
3  1  0.0 0.0 0.0700  0.002 708.47 1 0 0 0 
4  1  0.0 0.0 0.0675  0.002 708.47 1 0 0 0 

Bonds

1 1 1 2
2 1 2 3
3 1 3 4

Angles

1 1 1 2 3
2 1 2 3 4

