LAMMPS data file for linear chain of 5 beads

5 atoms
1 atom types
4 bonds
1 bond types
3 angles
1 angle types

-8.5000000000000006e-03 8.5000000000000006e-03 xlo xhi
-3.5000000000000001e-03 3.5000000000000001e-03 ylo yhi
-3.5000000000000001e-03 3.5000000000000001e-03 zlo zhi

Masses

1 2.9676321963850144e-05

Atoms # hybrid sphere molecular

1 1 -5.0000000000000001e-03 0.0000000000000000e+00 0.0000000000000000e+00 2.0000000000000000e-03 7.0846999999999998e+03 1 0.0 0.0 0.0
2 1 -2.5000000000000001e-03 0.0000000000000000e+00 0.0000000000000000e+00 2.0000000000000000e-03 7.0846999999999998e+03 1 0.0 0.0 0.0
3 1 0.0000000000000000e+00 0.0000000000000000e+00 0.0000000000000000e+00 2.0000000000000000e-03 7.0846999999999998e+03 1 0.0 0.0 0.0
4 1 2.4999999999999996e-03 0.0000000000000000e+00 0.0000000000000000e+00 2.0000000000000000e-03 7.0846999999999998e+03 1 0.0 0.0 0.0
5 1 5.0000000000000001e-03 0.0000000000000000e+00 0.0000000000000000e+00 2.0000000000000000e-03 7.0846999999999998e+03 1 0.0 0.0 0.0

Velocities

1 0 0 0 0 0 0
2 0 0 0 0 0 0
3 0 0 0 0 0 0
4 0 0 0 0 0 0
5 0 0 0 0 0 0

Bonds

1 1 1 2
2 1 2 3
3 1 3 4
4 1 4 5

Angles

1 1 1 2 3
2 1 2 3 4
3 1 3 4 5
